LAMMPS (22 Jul 2025 - Update 1)
units real
atom_style full
boundary p p p

pair_style lj/cut/tip4p/long 1 2 1 1 0.1546 9.5
bond_style zero
angle_style zero
pair_modify tail yes

read_data data_225.data
Reading data file ...
  triclinic box = (-0.20081916 -0.20081916 -0.20081916) to (49.991339 49.991339 49.991339) with tilt (0 0 0)
  2 by 4 by 7 MPI processor grid
  reading atoms ...
  12288 atoms
  reading velocities ...
  12288 velocities
  scanning bonds ...
  2 = max bonds/atom
  scanning angles ...
  1 = max angles/atom
  triclinic box = (-0.20081916 -0.20081916 -0.20081916) to (49.991339 49.991339 49.991339) with tilt (0 0 0)
  2 by 4 by 7 MPI processor grid
  reading bonds ...
  8192 bonds
  reading angles ...
  4096 angles
Finding 1-2 1-3 1-4 neighbors ...
  special bond factors lj:    0        0        0       
  special bond factors coul:  0        0        0       
     2 = max # of 1-2 neighbors
     1 = max # of 1-3 neighbors
     1 = max # of 1-4 neighbors
     2 = max # of special neighbors
  special bonds CPU = 0.005 seconds
  read_data CPU = 0.120 seconds
print "Equilibrium configuration loaded from NPT run"
Equilibrium configuration loaded from NPT run

kspace_style pppm/tip4p 1.0e-5
pair_coeff 1 1 0.18521 3.1589 #O-O
pair_coeff * 2 0.0 0.0 #O-H/H-H
bond_coeff 1 0.9572 #O-H
angle_coeff 1 104.52 #H-O-H

group gH2O type 1 2
12288 atoms in group gH2O
group gO type 1
4096 atoms in group gO

neighbor 3.0 bin
neigh_modify delay 0 every 1 check yes

timestep 1.0
fix 1 all shake 1.0e-4 100 0 b 1 a 1
Finding SHAKE clusters ...
       0 = # of size 2 clusters
       0 = # of size 3 clusters
       0 = # of size 4 clusters
    4096 = # of frozen angles
  find clusters CPU = 0.004 seconds

thermo 1000
thermo_style custom step temp vol etotal pe lx
thermo_modify flush yes

fix fnpt all npt temp 225.0 225.0 100.0 iso 0.9869 0.9869 1000.0
run 7000000 # 7ns
PPPM initialization ...
  extracting TIP4P info from pair style
  using 12-bit tables for long-range coulomb
  G vector (1/distance) = 0.32754946
  grid = 50 50 50
  stencil order = 5
  estimated absolute RMS force accuracy = 0.0036668591
  estimated relative force accuracy = 1.1042637e-05
  using double precision KISS FFT
  3d grid and FFT values/proc = 11424 2800
WARNING: Communication cutoff 0 is shorter than a bond length based estimate of 4.4358. This may lead to errors. (../comm.cpp:743)
WARNING: Increasing communication cutoff to 13.6118 for TIP4P pair style (../pair_lj_cut_tip4p_long.cpp:497)
Generated 0 of 1 mixed pair_coeff terms from geometric mixing rule
Neighbor list info ...
  update: every = 1 steps, delay = 0 steps, check = yes
  max neighbors/atom: 2000, page size: 100000
  master list distance cutoff = 12.8092
  ghost atom cutoff = 13.6118
  binsize = 6.4046, bins = 8 8 8
  1 neighbor lists, perpetual/occasional/extra = 1 0 0
  (1) pair lj/cut/tip4p/long, perpetual
      attributes: half, newton on
      pair build: half/bin/newton/tri
      stencil: half/bin/3d/tri
      bin: standard
Per MPI rank memory allocation (min/avg/max) = 9.159 | 9.283 | 9.641 Mbytes
   Step          Temp          Volume         TotEng         PotEng           Lx      
         0   226.11034      126446.73     -46573.443     -52094.111      50.192158    
      1000   224.94675      126679.7      -46532.014     -52024.272      50.222964    
      2000   223.795        126866.4      -46495.019     -51959.157      50.247626    
      3000   227.16942      126705.9      -46433.234     -51979.761      50.226427    
      4000   227.36407      127017.39     -46488.406     -52039.685      50.267551    
      5000   225.80834      126877.16     -46427.466     -51940.761      50.249046    
      6000   225.19636      126418.79     -46561.051     -52059.404      50.18846     
      7000   227.3056       126527.77     -46522.02      -52071.872      50.202879    
      8000   224.19352      126491.16     -46567.293     -52041.16       50.198036    
      9000   223.45155      126630.58     -46585.056     -52040.808      50.216472    
     10000   223.41557      126570.52     -46605.373     -52060.247      50.208532    
     11000   223.04127      126563.79     -46542.885     -51988.62       50.207641    
     12000   223.95274      126120.24     -46680.246     -52148.234      50.148922    
     13000   225.58953      126822.39     -46616.755     -52124.707      50.241814    
     14000   225.63251      127148.02     -46536.584     -52045.585      50.284778    
     15000   221.99961      126654.47     -46730.012     -52150.313      50.21963     
     16000   225.31822      127114        -46534.135     -52035.463      50.280293    
     17000   225.00934      126717.24     -46513.137     -52006.924      50.227925    
     18000   223.88567      127121.11     -46589.64      -52055.991      50.28123     
     19000   225.18046      126592.97     -46553.091     -52051.055      50.2115      
     20000   224.99011      126478.1      -46575.017     -52068.334      50.196308    
     21000   223.23987      126701.33     -46612.073     -52062.657      50.225822    
     22000   228.24781      126976.91     -46466.773     -52039.629      50.26221     
     23000   222.84014      126180.87     -46547.392     -51988.216      50.156957    
     24000   223.77318      126271.85     -46527.604     -51991.209      50.169008    
     25000   224.80368      126850.24     -46569.863     -52058.628      50.245492    
     26000   225.40035      127225.93     -46534.824     -52038.157      50.295046    
     27000   221.80865      126956.24     -46699.701     -52115.34       50.259483    
     28000   228.29179      126581.87     -46541.197     -52115.127      50.210032    
     29000   225.10475      126603.83     -46581.562     -52077.678      50.212936    
     30000   223.36652      126469.94     -46547.635     -52001.31       50.195229    
     31000   224.59324      126732.99     -46471.25      -51954.877      50.230006    
     32000   226.82577      126611.57     -46442.029     -51980.165      50.213959    
     33000   223.58739      126397.57     -46532.504     -51991.572      50.185652    
     34000   226.56829      126741.96     -46455.192     -51987.042      50.23119     
     35000   227.88639      126723.11     -46379.012     -51943.044      50.2287      
     36000   226.73485      127246.88     -46481.525     -52017.441      50.297807    
     37000   224.22743      126612.01     -46571.54      -52046.235      50.214017    
     38000   229.34951      126510.59     -46493.424     -52093.179      50.200606    
     39000   227.8478       126681.89     -46407.979     -51971.069      50.223253    
     40000   225.08808      126363.31     -46606.074     -52101.783      50.181118    
     41000   225.0402       126756.82     -46535.503     -52030.043      50.233154    
     42000   226.48756      126754.26     -46477.471     -52007.349      50.232815    
     43000   226.24397      126589.59     -46477.041     -52000.972      50.211053    
     44000   223.65767      126602.02     -46508.538     -51969.322      50.212696    
     45000   226.09487      126697.5      -46514.996     -52035.286      50.225317    
     46000   226.96415      126740.42     -46442.301     -51983.816      50.230988    
     47000   223.2754       126743.28     -46542.917     -51994.368      50.231365    
     48000   228.72761      126919.73     -46374.489     -51959.061      50.254665    
     49000   224.13523      126957.21     -46529.683     -52002.128      50.259611    
     50000   221.29562      126574.65     -46589.742     -51992.855      50.209077    
     51000   227.53238      126741.16     -46439.625     -51995.013      50.231085    
     52000   224.67195      126580.93     -46571.178     -52056.727      50.209908    
     53000   229.52756      127024.41     -46335.723     -51939.825      50.268477    
     54000   225.76596      126521.49     -46629.613     -52141.873      50.202048    
     55000   227.02958      126849.15     -46481.431     -52024.544      50.245347    
     56000   229.23391      126839.21     -46449.105     -52046.037      50.244035    
     57000   226.04294      126527.82     -46571.923     -52090.946      50.202885    
     58000   224.15573      126658.67     -46596.379     -52069.323      50.220185    
     59000   226.58184      126799.55     -46526.9       -52059.08       50.238797    
     60000   224.38433      126436.1      -46550.387     -52028.914      50.190751    
     61000   226.74122      126533.03     -46461.31      -51997.382      50.203574    
     62000   222.56796      126816.88     -46614.941     -52049.12       50.241087    
     63000   225.08049      126977.79     -46510.664     -52006.188      50.262327    
     64000   227.08925      126996.36     -46401.361     -51945.93       50.264776    
     65000   225.70051      127306.71     -46433.797     -51944.459      50.305688    
     66000   227.97498      126461.91     -46597.222     -52163.417      50.194166    
     67000   222.74617      126617.42     -46638.172     -52076.701      50.214732    
     68000   226.10025      126624.25     -46559.893     -52080.315      50.215635    
     69000   226.84135      126198.46     -46532.603     -52071.12       50.159286    
     70000   224.18808      126402.33     -46558.278     -52032.013      50.186282    
     71000   227.61978      126545.07     -46300.578     -51858.1        50.205166    
     72000   224.70651      127045.68     -46488.823     -51975.216      50.271283    
     73000   222.55142      126512.47     -46561.14      -51994.914      50.200854    
     74000   224.97307      126296.84     -46557.16      -52050.061      50.172318    
     75000   224.73286      127141.53     -46569.381     -52056.417      50.283923    
     76000   225.05302      126974.12     -46504.16      -51999.013      50.261842    
     77000   227.8619       126664.34     -46507.115     -52070.549      50.220934    
     78000   224.12969      126855        -46538.737     -52011.046      50.24612     
     79000   222.75132      126796.45     -46610.654     -52049.309      50.238388    
     80000   223.45805      126540.54     -46494.928     -51950.839      50.204567    
     81000   228.60732      126893.82     -46359.634     -51941.268      50.251245    
     82000   227.63015      126820.8      -46453.244     -52011.019      50.241604    
     83000   222.0781       126792.17     -46593.99      -52016.207      50.237823    
     84000   222.75174      126834.56     -46527.309     -51965.974      50.243421    
     85000   222.43587      126928.85     -46680.104     -52111.057      50.255868    
     86000   225.21074      126466.93     -46501.446     -52000.15       50.194831    
     87000   225.04         126098.79     -46471.856     -51966.391      50.146078    
     88000   226.44014      126441.72     -46419.348     -51948.069      50.191495    
     89000   226.33176      126197.34     -46530         -52056.074      50.159139    
     90000   224.63632      126910.45     -46546.409     -52031.088      50.253439    
     91000   227.38239      126950.47     -46398.854     -51950.581      50.258722    
     92000   222.62822      126520.56     -46552.533     -51988.183      50.201925    
     93000   226.00647      126485.48     -46494.674     -52012.806      50.197284    
     94000   225.16827      126614.66     -46488.388     -51986.055      50.214367    
     95000   226.75518      126313.5      -46504.973     -52041.386      50.174524    
     96000   224.44841      126520.07     -46427.128     -51907.219      50.20186     
     97000   225.85237      126581.14     -46627.091     -52141.461      50.209936    
     98000   225.73581      126351.59     -46502.021     -52013.545      50.179566    
     99000   225.47748      126541.14     -46607.808     -52113.025      50.204646    
    100000   225.60313      126371.33     -46453.873     -51962.157      50.18218     
    101000   226.35302      126353.04     -46465.735     -51992.329      50.179759    
    102000   225.90801      126033.87     -46406.925     -51922.653      50.137471    
    103000   225.2872       126252.07     -46576.976     -52077.547      50.166389    
    104000   227.27405      126491.26     -46452.685     -52001.766      50.198049    
    105000   221.24014      126171.36     -46524.042     -51925.8        50.155696    
    106000   223.0121       126787.32     -46542.836     -51987.858      50.237182    
    107000   226.07784      126905.5      -46418.203     -51938.078      50.252786    
    108000   222.26372      126507.97     -46536.559     -51963.309      50.20026     
    109000   225.0938       126627.91     -46436.222     -51932.071      50.216119    
    110000   221.65864      126177.55     -46573.256     -51985.233      50.156517    
    111000   222.8006       126424.75     -46612.363     -52052.221      50.18925     
    112000   226.96249      126384.13     -46534.345     -52075.819      50.183873    
    113000   229.16005      126618.12     -46435.599     -52030.729      50.214825    
    114000   225.58092      126501.84     -46528.9       -52036.642      50.199449    
    115000   227.80797      126860.95     -46432.62      -51994.738      50.246905    
    116000   223.06226      126564.68     -46522.568     -51968.815      50.20776     
    117000   222.42246      126206.16     -46542.026     -51972.651      50.160307    
    118000   224.49037      126613.26     -46446.555     -51927.67       50.214183    
    119000   222.81844      126783.88     -46648.171     -52088.465      50.236727    
    120000   225.83406      126533.48     -46478.782     -51992.705      50.203634    
    121000   222.28338      126332.86     -46675.449     -52102.679      50.177086    
    122000   226.35658      126490.27     -46487.035     -52013.715      50.197918    
    123000   222.96249      126978.18     -46552.872     -51996.683      50.262379    
    124000   226.04194      126194.15     -46546.806     -52065.804      50.158716    
    125000   229.47744      126716.26     -46420.845     -52023.724      50.227795    
    126000   225.50799      126499.2      -46519.146     -52025.107      50.199099    
    127000   226.78067      126117.17     -46423.44      -51960.475      50.148514    
    128000   226.20964      126166.84     -46499.331     -52022.424      50.155097    
    129000   228.08004      126566.41     -46443.075     -52011.835      50.207989    
    130000   222.10543      126151.23     -46666.44      -52089.326      50.153029    
    131000   227.64359      126621.41     -46420.866     -51978.97       50.21526     
    132000   225.37313      126852.71     -46601.268     -52103.936      50.245817    
    133000   224.22781      126270.15     -46588.339     -52063.043      50.168783    
    134000   226.15361      126263.28     -46539.755     -52061.48       50.167873    
    135000   223.0405       126401.89     -46539.309     -51985.024      50.186224    
    136000   225.85538      126154.27     -46505.838     -52020.281      50.153432    
    137000   225.05242      126407.55     -46579.435     -52074.273      50.186974    
    138000   225.59373      126368.27     -46561.773     -52069.828      50.181775    
    139000   222.5384       126744.4      -46613.684     -52047.14       50.231513    
    140000   225.53137      126654.98     -46485.405     -51991.937      50.219697    
    141000   222.47898      126219.42     -46610.96      -52042.966      50.162063    
    142000   222.29312      126635.42     -46585.13      -52012.597      50.217113    
    143000   224.6668       126330.59     -46506.234     -51991.657      50.176786    
    144000   226.0106       126209.59     -46408.451     -51926.685      50.160762    
    145000   227.02405      126445.2      -46315.663     -51858.64       50.191956    
    146000   222.57426      126156.15     -46550.759     -51985.091      50.15368     
    147000   226.90221      126580.07     -46469.349     -52009.352      50.209795    
    148000   226.0464       126424.95     -46440.709     -51959.816      50.189276    
    149000   226.2653       126258.96     -46468.736     -51993.187      50.167301    
    150000   226.6249       125920.71     -46500.485     -52033.716      50.122461    
    151000   224.99379      126135.72     -46423.574     -51916.98       50.150973    
    152000   224.32138      126116.22     -46491.776     -51968.765      50.148388    
    153000   228.13395      126559.73     -46325.604     -51895.68       50.207105    
    154000   223.66584      126631.32     -46588.407     -52049.391      50.21657     
    155000   224.6912       126585.71     -46311.561     -51797.58       50.21054     
    156000   225.36533      127086.22     -46494.901     -51997.379      50.27663     
    157000   222.12061      126679.47     -46605.167     -52028.423      50.222934    
    158000   222.73852      126771.18     -46526.327     -51964.669      50.23505     
    159000   225.85343      126128.47     -46421.054     -51935.449      50.150012    
    160000   223.82812      126026.02     -46563.147     -52028.093      50.13643     
    161000   225.39599      126384.98     -46475.905     -51979.132      50.183987    
    162000   226.46515      126263.27     -46595.314     -52124.646      50.167872    
    163000   224.57688      126669.97     -46476.829     -51960.057      50.221679    
    164000   223.00668      126734.9      -46548.569     -51993.459      50.230257    
    165000   227.0593       126131.65     -46426.763     -51970.601      50.150434    
    166000   226.44386      126503.94     -46479.634     -52008.446      50.199727    
    167000   225.23515      126255.44     -46512.211     -52011.51       50.166835    
    168000   226.73389      126402.75     -46574.461     -52110.354      50.186337    
    169000   227.26139      126183.44     -46536.023     -52084.796      50.157296    
    170000   227.27436      126303.95     -46581.033     -52130.122      50.173259    
    171000   223.61921      126108.91     -46685.483     -52145.329      50.147419    
    172000   225.78925      126482.19     -46510.895     -52023.723      50.196849    
    173000   222.96277      126278.92     -46618.562     -52062.38       50.169944    
    174000   226.99178      126339.19     -46562.622     -52104.811      50.177924    
    175000   222.80217      126415.9      -46578.902     -52018.799      50.188079    
    176000   226.14271      126509.67     -46509.844     -52031.302      50.200484    
    177000   225.53614      126341.84     -46490.171     -51996.819      50.178276    
    178000   225.31849      126333.59     -46554.876     -52056.211      50.177183    
    179000   222.58282      125997.58     -46525.766     -51960.307      50.132658    
    180000   223.40639      126020.19     -46601.045     -52055.694      50.135656    
    181000   227.3998       126195.51     -46563.891     -52116.043      50.158896    
    182000   225.83989      126109.65     -46534.833     -52048.898      50.147518    
    183000   222.39077      126542.92     -46560.036     -51989.888      50.204882    
    184000   222.72194      126476.64     -46581.602     -52019.539      50.196115    
    185000   225.19054      125935.76     -46579.142     -52077.353      50.124458    
    186000   222.58901      126066.19     -46564.6       -51999.292      50.141756    
    187000   224.93156      126295.6      -46569.138     -52061.026      50.172153    
    188000   223.82616      126613.78     -46507.554     -51972.452      50.214251    
    189000   225.19612      126337        -46503.928     -52002.274      50.177634    
    190000   224.00747      126023.73     -46697.07      -52166.395      50.136126    
    191000   230.08051      126077.97     -46494.349     -52111.952      50.143318    
    192000   226.03561      125928.59     -46646.536     -52165.379      50.123507    
    193000   226.16944      126577.14     -46562.339     -52084.45       50.209408    
    194000   223.48594      126692.37     -46615.851     -52072.442      50.224638    
    195000   224.20746      126698.16     -46720.429     -52194.637      50.225403    
    196000   226.70143      126860.28     -46606.495     -52141.595      50.246816    
    197000   220.45236      126452.52     -46719.796     -52102.32       50.192924    
    198000   222.48715      126703.32     -46523.433     -51955.638      50.226085    
    199000   223.35053      126783.76     -46630.053     -52083.338      50.236712    
    200000   223.20343      126621.78     -46753.754     -52203.448      50.215309    
    201000   224.2385       126397.64     -46544.973     -52019.939      50.185662    
    202000   225.89259      126476.86     -46634.294     -52149.646      50.196144    
    203000   226.47431      126952.81     -46577.265     -52106.82       50.259031    
    204000   222.57669      126294.09     -46685.275     -52119.666      50.171953    
    205000   223.7079       126092.44     -46568.894     -52030.905      50.145237    
    206000   230.01787      125873.17     -46428.084     -52044.157      50.116153    
    207000   222.66982      125736.49     -46639.297     -52075.962      50.098006    
    208000   223.26708      126076.43     -46715.851     -52167.098      50.143114    
    209000   224.24059      126379.47     -46619.61      -52094.627      50.183257    
    210000   222.9178       125923.64     -46604.306     -52047.026      50.12285     
    211000   225.83881      126124.75     -46518.069     -52032.107      50.14952     
    212000   223.6416       126349.31     -46655.828     -52116.22       50.179264    
    213000   223.63483      126622.8      -46733.394     -52193.62       50.215444    
    214000   224.27179      126197.04     -46662.08      -52137.858      50.159099    
    215000   225.90893      125912.46     -46583.129     -52098.88       50.121366    
    216000   226.33966      125823.84     -46554.644     -52080.911      50.109605    
    217000   224.64477      126368.1      -46695.805     -52180.69       50.181752    
    218000   225.5274       126460.37     -46550.952     -52057.388      50.193963    
    219000   224.9771       126293.94     -46608.222     -52101.221      50.171933    
    220000   222.54554      126221.41     -46617.605     -52051.236      50.162327    
    221000   223.66257      126460.82     -46723.268     -52184.172      50.194023    
    222000   222.89709      125840.76     -46642.949     -52085.163      50.111851    
    223000   224.50907      126454.35     -46674.949     -52156.521      50.193166    
    224000   226.47144      126820.47     -46483.654     -52013.139      50.241561    
    225000   222.50733      126511.21     -46690.505     -52123.203      50.200688    
    226000   222.14366      126432.2      -46626.609     -52050.428      50.190235    
    227000   226.15154      126382.71     -46611.522     -52133.196      50.183686    
    228000   224.77896      126417.36     -46678.296     -52166.458      50.188272    
    229000   225.25565      125821.96     -46720.59      -52220.391      50.109355    
    230000   224.0239       126520.1      -46651.435     -52121.161      50.201865    
    231000   225.01121      126345.4      -46719.208     -52213.04       50.178746    
    232000   225.11671      126583.38     -46550.327     -52046.736      50.210233    
    233000   222.85056      125915.73     -46697.51      -52138.588      50.121801    
    234000   229.87416      126126.19     -46549.216     -52161.781      50.14971     
    235000   225.60803      126392.25     -46491.851     -52000.255      50.184949    
    236000   226.98145      126371.3      -46399.896     -51941.833      50.182176    
    237000   227.53644      126020.27     -46569.157     -52124.644      50.135667    
    238000   222.47262      125825.97     -46704.746     -52136.597      50.109888    
    239000   225.80454      126351.31     -46457.683     -51970.885      50.179529    
    240000   229.11559      126537.86     -46409.357     -52003.401      50.204213    
    241000   225.73401      126400.36     -46397.008     -51908.488      50.186022    
    242000   223.50047      126508.47     -46524.191     -51981.138      50.200326    
    243000   222.86948      126511.72     -46615.199     -52056.739      50.200756    
    244000   223.27858      125846.97     -46631.201     -52082.73       50.112676    
    245000   224.78135      125798.26     -46521.469     -52009.689      50.106209    
    246000   226.12911      126072.66     -46424.43      -51945.556      50.142614    
    247000   227.89248      125885.97     -46392.958     -51957.138      50.117852    
    248000   222.49675      125633.41     -46605.48      -52037.919      50.084312    
    249000   227.14643      125470.33     -46429.172     -51975.137      50.062632    
    250000   220.26274      125788.14     -46560.735     -51938.629      50.104865    
    251000   225.69305      126177.88     -46447.18      -51957.66       50.15656     
    252000   224.61472      126424.86     -46442.578     -51926.73       50.189264    
    253000   226.18001      126008.27     -46584.078     -52106.448      50.134077    
    254000   223.33048      125474.66     -46575.498     -52028.294      50.063208    
    255000   228.4708       125692.62     -46505.344     -52083.645      50.092179    
    256000   225.58409      125719.02     -46543.928     -52051.747      50.095686    
    257000   223.84871      125580.5      -46620.908     -52086.356      50.07728     
    258000   222.78949      125830.97     -46600.919     -52040.506      50.110551    
    259000   224.3497       125949.71     -46477.812     -51955.492      50.126309    
    260000   222.29484      126131.94     -46618.938     -52046.448      50.150472    
    261000   224.13842      126028.27     -46591.237     -52063.76       50.136729    
    262000   226.95039      126643.68     -46506.301     -52047.48       50.218204    
    263000   225.99111      125666.28     -46566         -52083.757      50.08868     
    264000   221.95931      126160.31     -46588.956     -52008.274      50.154232    
    265000   229.12848      126253.48     -46343.699     -51938.058      50.166576    
    266000   221.85598      125972.28     -46659.498     -52076.292      50.129303    
    267000   227.00176      126099.19     -46414.528     -51956.961      50.146131    
    268000   224.665        125779.99     -46498.934     -51984.313      50.103783    
    269000   225.94073      125604.41     -46434.985     -51951.512      50.080459    
    270000   227.76217      126231.58     -46448.017     -52009.016      50.163675    
    271000   226.37348      125581.14     -46548.887     -52075.98       50.077365    
    272000   225.73807      126349.57     -46422.967     -51934.546      50.179298    
    273000   220.77274      126064.29     -46627.875     -52018.221      50.141505    
    274000   228.2456       125833.73     -46474.166     -52046.968      50.110918    
    275000   226.80662      126282.5      -46349.16      -51886.828      50.170418    
    276000   226.77969      126293.33     -46442.705     -51979.716      50.171852    
    277000   227.26248      126440.31     -46428.485     -51977.284      50.191308    
    278000   225.55332      126792.4      -46459.278     -51966.346      50.237854    
    279000   223.83348      126262.74     -46630.895     -52095.972      50.167802    
    280000   220.2901       126182.3      -46727.585     -52106.147      50.157146    
    281000   224.2149       126417.18     -46523.906     -51998.296      50.188248    
    282000   228.10712      125971.9      -46460.871     -52030.292      50.129252    
    283000   224.87588      126490.92     -46562.769     -52053.297      50.198004    
    284000   225.10073      126056.37     -46476.618     -51972.636      50.140454    
    285000   226.17401      126810.49     -46587.734     -52109.957      50.240243    
    286000   224.17871      126376.28     -46540.515     -52014.021      50.182834    
    287000   224.329        126356.9      -46608.062     -52085.237      50.180269    
    288000   224.45068      126142.89     -46491.669     -51971.816      50.151923    
    289000   224.42388      125694.66     -46597.784     -52077.276      50.09245     
    290000   225.96049      126130.14     -46352.987     -51869.996      50.150233    
    291000   225.5267       125776.35     -46574.994     -52081.413      50.103299    
    292000   223.98732      125860.7      -46447.235     -51916.068      50.114497    
    293000   223.50299      126406.08     -46558.619     -52015.627      50.186778    
    294000   224.37471      126531.78     -46562.612     -52040.904      50.203409    
    295000   227.71153      126002.99     -46397.184     -51956.947      50.133375    
    296000   225.20645      126277.28     -46469.597     -51968.196      50.169727    
    297000   220.76755      126038.79     -46675.414     -52065.634      50.138123    
    298000   224.18614      125924.86     -46476.879     -51950.566      50.123011    
    299000   223.11814      126882.9      -46363.183     -51810.794      50.249803    
    300000   223.65269      126606.1      -46566.24      -52026.903      50.213236    
    301000   227.99596      126418.92     -46469.117     -52035.825      50.188478    
    302000   224.45524      126215.9      -46479.733     -51959.991      50.161597    
    303000   224.63957      126449.19     -46505.81      -51990.568      50.192484    
    304000   223.07431      126897.61     -46497.069     -51943.61       50.251745    
    305000   225.259        126204.06     -46447.038     -51946.92       50.160029    
    306000   227.68564      126850.74     -46454.18      -52013.311      50.245557    
    307000   223.26316      126884.43     -46495.996     -51947.148      50.250005    
    308000   223.22994      126442.5      -46526.956     -51977.298      50.191598    
    309000   225.50279      126424.38     -46409.69      -51915.525      50.189201    
    310000   222.82037      126651.55     -46499.738     -51940.078      50.219244    
    311000   229.11993      126389.77     -46409.633     -52003.783      50.18462     
    312000   227.25706      127071.36     -46516.95      -52065.616      50.27467     
    313000   223.75647      126467.98     -46528.613     -51991.81       50.194969    
    314000   226.29907      126934.53     -46355.387     -51880.663      50.256618    
    315000   225.36554      126445.77     -46421.503     -51923.986      50.192031    
    316000   224.498        126388.33     -46522.737     -52004.039      50.184429    
    317000   225.1369       126294.6      -46540.779     -52037.68       50.172021    
    318000   226.01595      126595.2      -46432.079     -51950.443      50.211795    
    319000   223.6693       126780.44     -46585.158     -52046.226      50.236273    
    320000   223.6999       126455.27     -46553.446     -52015.261      50.193287    
    321000   223.54329      126274.66     -46419.053     -51877.045      50.16938     
    322000   226.85156      126342.72     -46548.502     -52087.268      50.178391    
    323000   225.27306      125954.08     -46552.097     -52052.322      50.126889    
    324000   222.96802      126694.94     -46533.744     -51977.69       50.224978    
    325000   226.90255      126381.19     -46392.124     -51932.134      50.183485    
    326000   225.53458      126235.66     -46517.662     -52024.273      50.164215    
    327000   226.61128      126565.76     -46429.888     -51962.787      50.207902    
    328000   225.64527      126587.68     -46492.946     -52002.259      50.210801    
    329000   222.86819      126385.14     -46506.262     -51947.771      50.184007    
    330000   228.30086      125966.06     -46453.767     -52027.918      50.128477    
    331000   228.23327      126476.31     -46452.175     -52024.676      50.196071    
    332000   226.99867      126871.36     -46410.262     -51952.62       50.24828     
    333000   224.24735      126508.47     -46515.939     -51991.121      50.200325    
    334000   222.79173      126622.9      -46564.207     -52003.849      50.215457    
    335000   223.66892      126509.25     -46606.141     -52067.2        50.200429    
    336000   226.57592      126209.86     -46485.07      -52017.106      50.160797    
    337000   225.54227      126346.44     -46383.441     -51890.239      50.178885    
    338000   223.17402      126447.18     -46653.553     -52102.529      50.192218    
    339000   226.19446      126652.52     -46469.717     -51992.439      50.219372    
    340000   224.47744      126288.29     -46628.237     -52109.036      50.171185    
    341000   225.03311      126635.4      -46357.372     -51851.739      50.217109    
    342000   224.89874      126420.02     -46527.89      -52018.976      50.188624    
    343000   221.97857      126782.64     -46527.269     -51947.057      50.236564    
    344000   224.51491      126282.39     -46462.864     -51944.579      50.170404    
    345000   226.3404       126080.45     -46596.62      -52122.905      50.143647    
    346000   226.50972      126262.34     -46476.221     -52006.64       50.167749    
    347000   220.7308       125824.08     -46708.621     -52097.943      50.109637    
    348000   229.74327      126407.05     -46480.026     -52089.396      50.186908    
    349000   222.10842      126523.32     -46662.37      -52085.328      50.20229     
    350000   226.65063      126751.26     -46542.977     -52076.836      50.232419    
    351000   224.68311      126776.78     -46398.037     -51883.859      50.23579     
    352000   226.01297      126816.43     -46453.193     -51971.484      50.241027    
    353000   222.19023      126500.44     -46670.976     -52095.932      50.199263    
    354000   226.96819      126712.98     -46463.566     -52005.18       50.227362    
    355000   231.11544      126127.27     -46490.481     -52133.353      50.149853    
    356000   223.78474      126260.73     -46590.903     -52054.79       50.167535    
    357000   225.93759      126136.16     -46574.114     -52090.565      50.151032    
    358000   226.72035      126939.63     -46531.613     -52067.175      50.257291    
    359000   225.43838      126337.58     -46601.766     -52106.028      50.177712    
    360000   225.0509       126910.92     -46492.983     -51987.784      50.253502    
    361000   221.8138       127127.15     -46590.563     -52006.327      50.282026    
    362000   227.25526      126251.25     -46535.778     -52084.4        50.16628     
    363000   226.08315      126702.36     -46522.739     -52042.743      50.225959    
    364000   224.22538      126892.67     -46618.14      -52092.785      50.251092    
    365000   223.65039      127093.92     -46532.437     -51993.044      50.277645    
    366000   224.60862      126825.74     -46570.442     -52054.444      50.242257    
    367000   221.76343      126642.47     -46528.196     -51942.731      50.218044    
    368000   222.80692      126928.69     -46505.714     -51945.727      50.255848    
    369000   230.1478       126583.86     -46529.818     -52149.064      50.210296    
    370000   224.02506      126806.67     -46650.126     -52119.881      50.239738    
    371000   226.5208       126634.29     -46551.753     -52082.443      50.216963    
    372000   225.22988      126870.44     -46616.554     -52115.725      50.248158    
    373000   224.01508      127283.28     -46534.147     -52003.658      50.302602    
    374000   222.52085      126692.17     -46612.628     -52045.656      50.224613    
    375000   227.20129      126863.57     -46509.363     -52056.668      50.247251    
    376000   225.2593       126787.68     -46634.859     -52134.749      50.237229    
    377000   222.96433      126974.11     -46638.942     -52082.797      50.261841    
    378000   223.70216      126769.05     -46697.23      -52159.101      50.23477     
    379000   223.94808      127173.49     -46595.593     -52063.468      50.288135    
    380000   222.06458      126753.68     -46783.102     -52204.99       50.232738    
    381000   223.70796      127064.44     -46654.165     -52116.177      50.273757    
    382000   227.0794       127724.5      -46520.999     -52065.327      50.360659    
    383000   226.36208      126635.76     -46639.54      -52166.355      50.217157    
    384000   227.56495      127086.46     -46608.631     -52164.815      50.276661    
    385000   220.53964      126656.28     -46679.167     -52063.822      50.219869    
    386000   222.72575      127157.46     -46621.983     -52060.014      50.286022    
    387000   226.87009      127020.15     -46596.311     -52135.529      50.267915    
    388000   226.55564      127180.1      -46639.7       -52171.24       50.289006    
    389000   223.63868      127329.51     -46659.989     -52120.31       50.308692    
    390000   227.3219       127240.55     -46487.395     -52037.644      50.296972    
    391000   221.62311      127146.56     -46717.292     -52128.401      50.284586    
    392000   227.43469      127599.08     -46546.976     -52099.979      50.344169    
    393000   229.18767      127752.27     -46525.174     -52120.977      50.364309    
    394000   221.54229      127237.44     -46700.045     -52109.181      50.296563    
    395000   224.8203       127282.28     -46587.581     -52076.752      50.302471    
    396000   225.76201      127071.98     -46737.09      -52249.254      50.274752    
    397000   221.93965      127377.19     -46692.367     -52111.205      50.31497     
    398000   224.0278       127555        -46644.011     -52113.833      50.338371    
    399000   227.46382      126873.98     -46571.246     -52124.96       50.248625    
    400000   222.12912      127338.18     -46718.655     -52142.118      50.309833    
    401000   223.47484      127407.86     -46546.408     -52002.729      50.319009    
    402000   222.50198      126916.76     -46695.143     -52127.711      50.254272    
    403000   223.51554      126928.51     -46710.793     -52168.107      50.255824    
    404000   224.40461      126871.8      -46662.249     -52141.271      50.248338    
    405000   221.75312      127643.91     -46687.322     -52101.605      50.350064    
    406000   227.03489      126975.19     -46609.218     -52152.46       50.261983    
    407000   226.64452      126963.48     -46488.312     -52022.023      50.260439    
    408000   223.04733      127002.18     -46649.487     -52095.369      50.265545    
    409000   229.34086      127026.35     -46455.982     -52055.526      50.268733    
    410000   225.15319      127411.73     -46537.889     -52035.188      50.319518    
    411000   225.43735      127050.97     -46661.205     -52165.442      50.271981    
    412000   224.11806      127354.29     -46623.213     -52095.238      50.311955    
    413000   224.74126      127479.44     -46525.68      -52012.922      50.328431    
    414000   224.97111      126928.18     -46658.564     -52151.417      50.25578     
    415000   224.32298      126951.02     -46605.139     -52082.167      50.258795    
    416000   226.94782      127430.16     -46615.241     -52156.357      50.321944    
    417000   229.65525      127533.93     -46447.219     -52054.439      50.3356      
    418000   224.83254      127317.65     -46608.099     -52097.569      50.307129    
    419000   224.34502      127341.83     -46492.902     -51970.468      50.310315    
    420000   226.13144      127804.46     -46568.358     -52089.542      50.371165    
    421000   223.59031      127155.02     -46744.584     -52203.723      50.285701    
    422000   221.26765      127143.99     -46713.65      -52116.08       50.284247    
    423000   227.50094      127402.62     -46564.5       -52119.121      50.318319    
    424000   224.52449      127498.75     -46620.767     -52102.715      50.330971    
    425000   222.66294      127084.71     -46656.595     -52093.092      50.27643     
    426000   225.36383      127515.19     -46550.744     -52053.186      50.333134    
    427000   224.78741      126905.62     -46713.278     -52201.646      50.252803    
    428000   221.50371      127093.97     -46705.475     -52113.669      50.277652    
    429000   224.19823      127251.68     -46708.203     -52182.186      50.29844     
    430000   225.32774      127635.4      -46608.986     -52110.547      50.348945    
    431000   223.68369      127720.01     -46724.358     -52185.777      50.360068    
    432000   223.86327      127002.42     -46739.076     -52204.88       50.265576    
    433000   226.71014      127430.58     -46538.217     -52073.53       50.321999    
    434000   226.55804      126990.67     -46555.847     -52087.446      50.264026    
    435000   222.43705      126960.98     -46620.785     -52051.767      50.260108    
    436000   227.03285      127020.94     -46575.452     -52118.644      50.268019    
    437000   224.41656      127141.41     -46530.654     -52009.967      50.283906    
    438000   224.90645      127098.78     -46715.233     -52206.507      50.278285    
    439000   224.01741      127414.09     -46633.436     -52103.004      50.319828    
    440000   227.41082      126988.9      -46472.417     -52024.838      50.263792    
    441000   222.9387       127114.18     -46635.521     -52078.751      50.280316    
    442000   224.04649      126985.56     -46696.373     -52166.651      50.263351    
    443000   223.87712      127333.74     -46561.806     -52027.949      50.309249    
    444000   224.16491      126833.46     -46699.294     -52172.463      50.243275    
    445000   227.8431       127030.82     -46493.684     -52056.659      50.269323    
    446000   225.82435      127121.11     -46700.361     -52214.047      50.281229    
    447000   225.44663      126954.87     -46669.994     -52174.457      50.259303    
    448000   227.99174      127193.6      -46531.238     -52097.843      50.290785    
    449000   224.33517      127084.5      -46642.453     -52119.779      50.276403    
    450000   221.09071      126961.93     -46657.687     -52055.797      50.260234    
    451000   225.25128      127095.35     -46472.784     -51972.478      50.277834    
    452000   221.02056      126743.89     -46722.382     -52118.779      50.231446    
    453000   224.07238      126712.39     -46490.486     -51961.396      50.227284    
    454000   224.45278      126815.6      -46702.058     -52182.256      50.240917    
    455000   224.85731      126899.72     -46630.77      -52120.844      50.252023    
    456000   224.1717       126785.4      -46589.776     -52063.111      50.236928    
    457000   222.02703      126808.73     -46663.848     -52084.819      50.24001     
    458000   223.44933      126933.16     -46657.789     -52113.486      50.256437    
    459000   224.88638      126681.31     -46509.27      -52000.054      50.223177    
    460000   224.86413      126491.29     -46614.879     -52105.12       50.198053    
    461000   226.86752      126603.36     -46574.538     -52113.694      50.212874    
    462000   227.68801      126889.49     -46503.806     -52062.994      50.250673    
    463000   222.35693      126569.22     -46710.76      -52139.786      50.20836     
    464000   226.63399      126327.78     -46495.282     -52028.736      50.176415    
    465000   226.61934      126554.69     -46612.365     -52145.461      50.206438    
    466000   228.12432      126916.12     -46433.025     -52002.866      50.254188    
    467000   226.25581      126867.45     -46527.17      -52051.39       50.247764    
    468000   227.5692       126361.87     -46565.272     -52121.559      50.180927    
    469000   225.531        126616.94     -46595.174     -52101.697      50.214669    
    470000   225.51482      126470.25     -46618.199     -52124.327      50.195269    
    471000   226.19564      126988.08     -46578.234     -52100.985      50.263685    
    472000   221.90502      126722.28     -46586.667     -52004.659      50.228591    
    473000   228.02032      126464.14     -46459.838     -52027.14       50.194461    
    474000   226.6224       126717.55     -46561.323     -52094.493      50.227966    
    475000   223.32504      126595.72     -46570.333     -52022.996      50.211864    
    476000   227.63881      126161.16     -46593.024     -52151.011      50.154344    
    477000   221.46664      126732.55     -46591.704     -51998.993      50.229948    
    478000   224.59998      126755.77     -46623.775     -52107.566      50.233016    
    479000   225.70784      126241.82     -46619.782     -52130.623      50.165031    
    480000   224.54794      126555.97     -46651.07      -52133.591      50.206608    
    481000   224.95999      126740.15     -46588.539     -52081.121      50.230951    
    482000   228.31098      126199.21     -46556.277     -52130.676      50.159386    
    483000   224.4946       126460.83     -46591.345     -52072.564      50.194023    
    484000   225.96803      126743.83     -46621.41      -52138.603      50.231437    
    485000   222.385        126713.84     -46633.363     -52063.074      50.227476    
    486000   228.23737      126809.15     -46538.298     -52110.899      50.240065    
    487000   224.56881      126593.5      -46608.999     -52092.029      50.211571    
    488000   225.5672       126594.6      -46591.78      -52099.187      50.211716    
    489000   223.87074      126242.41     -46625.418     -52091.404      50.165109    
    490000   226.04941      126853.72     -46592.379     -52111.56       50.245951    
    491000   226.11356      126761.8      -46554.996     -52075.743      50.233812    
    492000   224.25011      126414.76     -46635.287     -52110.536      50.187927    
    493000   228.39034      126562.07     -46458.016     -52034.352      50.207415    
    494000   225.91175      126638.72     -46569.268     -52085.088      50.217548    
    495000   224.30598      126678.42     -46556.868     -52033.482      50.222796    
    496000   222.3601       126539.58     -46612.849     -52041.952      50.204441    
    497000   219.7497       126635.33     -46701.348     -52066.716      50.2171      
    498000   222.43783      126667.01     -46553.363     -51984.364      50.221287    
    499000   227.7274       126474.01     -46664.08      -52224.23       50.195767    
    500000   226.97834      127259.6      -46514.689     -52056.55       50.299482    
    501000   224.13213      126513.85     -46606.839     -52079.208      50.201038    
    502000   226.8268       126704        -46615.344     -52153.505      50.226176    
    503000   226.35705      126936.54     -46645.16      -52171.852      50.256884    
    504000   224.77731      126676.02     -46618.177     -52106.298      50.222478    
    505000   223.402        126784.21     -46751.121     -52205.663      50.236772    
    506000   224.29689      126907.05     -46610.451     -52086.842      50.252991    
    507000   225.37184      126970.04     -46701.974     -52204.611      50.261303    
    508000   224.0827       127171.71     -46658.328     -52129.49       50.2879      
    509000   224.04606      126982.99     -46699.819     -52170.086      50.263013    
    510000   225.63427      126997.97     -46608.513     -52117.558      50.264989    
    511000   224.08039      126898.55     -46639.172     -52110.278      50.251869    
    512000   222.50997      126785.93     -46765.734     -52198.497      50.236999    
    513000   222.57686      127165.35     -46764.247     -52198.642      50.287062    
    514000   221.19727      126331.94     -46793.066     -52193.777      50.176965    
    515000   224.72852      126917.61     -46686.569     -52173.499      50.254384    
    516000   224.47647      127291.78     -46693.638     -52174.414      50.303722    
    517000   225.17994      126721.57     -46566.785     -52064.737      50.228497    
    518000   222.7209       126889.32     -46598.554     -52036.466      50.25065     
    519000   226.85208      126763.52     -46493.467     -52032.245      50.234039    
    520000   230.5218       127013.99     -46461.881     -52090.259      50.267103    
    521000   223.92052      126803.09     -46661.851     -52129.053      50.239265    
    522000   224.89525      127528.36     -46630.115     -52121.116      50.334868    
    523000   221.84199      127217.09     -46782.054     -52198.507      50.293882    
    524000   227.23341      127690.14     -46491.098     -52039.187      50.356142    
    525000   225.11626      126852.98     -46557.947     -52054.344      50.245853    
    526000   223.01788      126732.58     -46657.923     -52103.087      50.229951    
    527000   224.78508      126948.02     -46585.559     -52073.87       50.258398    
    528000   226.87147      126541.96     -46687.247     -52226.499      50.204756    
    529000   225.97912      126952.45     -46456.481     -51973.945      50.258983    
    530000   224.12793      126888.35     -46665.18      -52137.446      50.250523    
    531000   224.74168      126626.13     -46576.515     -52063.766      50.215884    
    532000   225.50273      127228.92     -46584.05      -52089.883      50.295441    
    533000   224.17567      126974.42     -46597.714     -52071.146      50.261882    
    534000   226.05259      127195.01     -46587.478     -52106.736      50.290971    
    535000   224.44178      127502.32     -46740.183     -52220.112      50.331441    
    536000   226.58022      126729.14     -46603.858     -52135.999      50.229498    
    537000   223.87192      127111.28     -46739.377     -52205.392      50.279934    
    538000   226.50916      127296.88     -46674.849     -52205.255      50.304394    
    539000   225.94517      126802.31     -46631.856     -52148.492      50.239162    
    540000   225.99139      127575.67     -46729.475     -52247.239      50.341091    
    541000   224.66964      127386.59     -46531.938     -52017.43       50.316209    
    542000   223.63791      127406.02     -46628.407     -52088.709      50.318765    
    543000   225.00593      127330.07     -46676.037     -52169.74       50.308765    
    544000   222.9195       126771.91     -46804.503     -52247.264      50.235147    
    545000   226.37924      126656.91     -46600.972     -52128.206      50.219952    
    546000   223.06304      126347.08     -46665.702     -52111.968      50.17897     
    547000   224.58501      126674.31     -46544.132     -52027.558      50.222251    
    548000   222.61603      126920.2      -46554.017     -51989.369      50.254727    
    549000   226.67191      126966.99     -46633.971     -52168.35       50.260902    
    550000   223.65286      127038.89     -46659.876     -52120.543      50.270387    
    551000   228.28478      126624.18     -46495.382     -52069.141      50.215627    
    552000   227.74453      126747.61     -46660.54      -52221.108      50.231938    
    553000   227.27832      126638.32     -46506.212     -52055.398      50.217495    
    554000   224.90154      126983.99     -46651.22      -52142.374      50.263145    
    555000   225.84435      126952.94     -46589.269     -52103.443      50.259048    
    556000   225.24047      127027.06     -46527.601     -52027.03       50.268826    
    557000   227.03714      127228.94     -46587.802     -52131.099      50.295443    
    558000   224.86541      126780.71     -46691.623     -52181.895      50.23631     
    559000   225.55067      126515.77     -46603.447     -52110.451      50.201291    
    560000   226.7969       126973.76     -46561.473     -52098.904      50.261795    
    561000   225.9351       126611.38     -46706.538     -52222.928      50.213934    
    562000   223.61252      126874.11     -46671.384     -52131.066      50.248642    
    563000   225.20355      126978.69     -46715.562     -52214.091      50.262446    
    564000   220.50076      126888.61     -46616.279     -51999.985      50.250557    
    565000   227.0738       126539.48     -46502.777     -52046.969      50.204427    
    566000   221.98585      126768.27     -46648.731     -52068.696      50.234666    
    567000   223.51253      126623.29     -46512.793     -51970.033      50.215508    
    568000   225.59628      127258.9      -46547.476     -52055.593      50.29939     
    569000   226.67266      127008.53     -46596.414     -52130.812      50.266383    
    570000   224.77914      127178.31     -46691.639     -52179.804      50.28877     
    571000   225.76358      126190.1      -46741.635     -52253.837      50.15818     
    572000   221.63162      127073.69     -46743.351     -52154.668      50.274977    
    573000   221.36413      126868.97     -46806.141     -52210.927      50.247965    
    574000   225.81367      126847.65     -46598.932     -52112.356      50.245149    
    575000   222.14824      127060.54     -46692.624     -52116.555      50.273243    
    576000   227.01253      127074.37     -46671.167     -52213.863      50.275066    
    577000   224.31661      127355.91     -46606.532     -52083.405      50.312169    
    578000   224.40486      127257.88     -46574.784     -52053.812      50.299256    
    579000   221.47079      127261.8      -46728.489     -52135.879      50.299772    
    580000   225.19766      126968.16     -46689.777     -52188.161      50.261056    
    581000   225.8378       126695.5      -46608.064     -52122.078      50.225052    
    582000   220.77224      127073.99     -46769.326     -52159.66       50.275017    
    583000   222.44462      127091.55     -46683.471     -52114.638      50.277333    
    584000   223.1643       126993.54     -46608.824     -52057.562      50.264404    
    585000   227.29876      127430.8      -46613.665     -52163.349      50.322028    
    586000   221.11087      127233.24     -46791.003     -52189.605      50.29601     
    587000   224.22478      127260.78     -46685.308     -52159.939      50.299639    
    588000   225.77649      127280.79     -46615.455     -52127.972      50.302274    
    589000   229.65955      127374.39     -46498.962     -52106.287      50.314602    
    590000   226.66517      126720        -46682.397     -52216.612      50.22829     
    591000   224.74834      126807.16     -46768.108     -52255.521      50.239803    
    592000   222.76029      127025.73     -46696.918     -52135.793      50.268652    
    593000   227.10884      127205.59     -46581.233     -52126.281      50.292365    
    594000   224.04363      126806.26     -46727.992     -52198.2        50.239684    
    595000   223.29179      126914.39     -46661.282     -52113.133      50.25396     
    596000   225.97796      127321.85     -46657.539     -52174.975      50.307682    
    597000   225.72961      127582.15     -46702.09      -52213.462      50.341942    
    598000   223.34482      127930.25     -46679.695     -52132.841      50.387686    
    599000   225.51654      127301.64     -46736.722     -52242.892      50.305021    
    600000   227.11519      127417.32     -46614.674     -52159.877      50.320253    
    601000   223.60211      127916.93     -46780.745     -52240.173      50.385938    
    602000   224.51171      126843.59     -46643.037     -52124.673      50.244613    
    603000   224.95856      127288.3      -46606.289     -52098.836      50.303264    
    604000   223.99407      127047.79     -46691.093     -52160.091      50.271561    
    605000   225.95787      126459.79     -46618.244     -52135.189      50.193886    
    606000   224.66659      126778.24     -46693.256     -52178.674      50.235984    
    607000   226.12012      127005.48     -46660.325     -52181.232      50.265979    
    608000   227.9728       127299.4      -46442.305     -52008.446      50.304725    
    609000   223.83801      127101.19     -46731.37      -52196.557      50.278603    
    610000   230.06598      126851.46     -46546.161     -52163.409      50.245653    
    611000   226.48507      126993.74     -46620.584     -52150.402      50.264432    
    612000   226.21244      127235.34     -46547.546     -52070.707      50.296286    
    613000   223.61418      126990.16     -46597.708     -52057.431      50.263959    
    614000   222.76193      126322.65     -46761.683     -52200.597      50.175734    
    615000   222.81594      127107.58     -46632.077     -52072.31       50.279446    
    616000   224.95715      127257.53     -46573.901     -52066.414      50.29921     
    617000   224.96062      127210.6      -46640.182     -52132.779      50.293027    
    618000   224.74714      126778.17     -46798.83      -52286.214      50.235974    
    619000   225.20794      126517.78     -46804.401     -52303.036      50.201557    
    620000   228.81383      127017.81     -46601.405     -52188.081      50.267606    
    621000   224.1519       126474.94     -46652.118     -52124.969      50.19589     
    622000   224.56541      126894.01     -46736.203     -52219.151      50.251269    
    623000   223.48738      127295.97     -46745.673     -52202.299      50.304274    
    624000   225.93028      126882.24     -46747.223     -52263.494      50.249716    
    625000   220.47122      126727.92     -46712.49      -52095.475      50.229336    
    626000   225.42727      126707.3      -46675.21      -52179.201      50.226611    
    627000   224.58449      126788.54     -46706.367     -52189.781      50.237343    
    628000   224.297        126928.35     -46669.622     -52146.016      50.255802    
    629000   222.61716      127071        -46847.874     -52283.253      50.274622    
    630000   225.95668      127664.48     -46631.442     -52148.359      50.352769    
    631000   223.31084      127244.8      -46818.046     -52270.363      50.297533    
    632000   225.95185      127262.71     -46731.388     -52248.187      50.299892    
    633000   221.90692      127269.96     -46795.429     -52213.467      50.300847    
    634000   224.14203      127340.15     -46728.252     -52200.862      50.310093    
    635000   226.72552      127160.84     -46568.774     -52104.462      50.286468    
    636000   224.12116      127428.34     -46714.055     -52186.156      50.321704    
    637000   224.66697      126836.98     -46601.071     -52086.498      50.24374     
    638000   226.41665      127518.13     -46558.4       -52086.548      50.333521    
    639000   223.19839      127688.03     -46798.929     -52248.499      50.355865    
    640000   227.54504      127200.49     -46638.209     -52193.907      50.291694    
    641000   225.62507      127251.29     -46645.637     -52154.457      50.298388    
    642000   222.46876      127390.26     -46672.943     -52104.699      50.316692    
    643000   222.38641      127206        -46740.35      -52170.095      50.292419    
    644000   222.56453      127206.64     -46782.496     -52216.591      50.292504    
    645000   224.73152      127729.49     -46621.202     -52108.206      50.361315    
    646000   222.62139      127780.17     -46877.209     -52312.692      50.367974    
    647000   225.30934      127510.76     -46712.711     -52213.823      50.332552    
    648000   222.83157      127516.22     -46822.724     -52263.339      50.33327     
    649000   227.67424      127227.48     -46638.588     -52197.44       50.295251    
    650000   223.51079      127923.63     -46745.238     -52202.436      50.386818    
    651000   223.34034      127145.41     -46809.914     -52262.95       50.284433    
    652000   222.73727      127357.33     -46731.471     -52169.783      50.312356    
    653000   227.67376      126936.79     -46703.915     -52262.756      50.256917    
    654000   227.55965      127047.43     -46753.012     -52309.066      50.271514    
    655000   225.41307      127204.45     -46765.117     -52268.761      50.292215    
    656000   227.65972      127051.21     -46631.306     -52189.804      50.272012    
    657000   223.78564      127010.42     -46711.224     -52175.133      50.266631    
    658000   225.52242      127075.89     -46703.168     -52209.481      50.275268    
    659000   228.0604       127468.88     -46657.898     -52226.179      50.32704     
    660000   225.35046      127496.03     -46825.469     -52327.584      50.330613    
    661000   225.5012       127507.82     -46673.454     -52179.249      50.332165    
    662000   226.92684      127012.11     -46750.391     -52290.995      50.266855    
    663000   221.84056      127323.08     -46779.824     -52196.242      50.307845    
    664000   223.55739      127557.91     -46707.465     -52165.801      50.338755    
    665000   223.34192      127120.61     -46876.134     -52329.209      50.281164    
    666000   224.36422      126849.53     -46792.555     -52270.59       50.245397    
    667000   223.81849      127061.49     -46775.638     -52240.349      50.273368    
    668000   222.21598      127015.71     -46723.866     -52149.45       50.26733     
    669000   225.29047      126863.64     -46636.807     -52137.458      50.247261    
    670000   226.36498      127069.83     -46693.606     -52220.492      50.274468    
    671000   223.79714      127108.88     -46738.726     -52202.915      50.279617    
    672000   228.23571      126823.26     -46858.824     -52431.384      50.241929    
    673000   225.83877      127087.29     -46691.633     -52205.671      50.276771    
    674000   221.97061      126806.49     -46847.192     -52266.786      50.239714    
    675000   225.39378      127357.49     -46574.428     -52077.6        50.312376    
    676000   225.88434      127036.22     -46670.271     -52185.422      50.270035    
    677000   222.5809       127382.81     -46762.542     -52197.036      50.31571     
    678000   224.48133      127458.43     -46674.422     -52155.317      50.325665    
    679000   223.63889      127291.98     -46745.502     -52205.827      50.303748    
    680000   222.28021      127042.31     -46653.078     -52080.23       50.270839    
    681000   224.9122       126873.75     -46625.361     -52116.775      50.248596    
    682000   226.93677      127109.93     -46619.601     -52160.447      50.279756    
    683000   225.26617      127014.26     -46785.948     -52286.005      50.267138    
    684000   227.34767      126759.46     -46709.171     -52260.05       50.233502    
    685000   221.98299      126689.33     -46726.214     -52146.11       50.224237    
    686000   225.92199      126761.4      -46809.882     -52325.952      50.233759    
    687000   228.50522      126843.57     -46537.821     -52116.963      50.244611    
    688000   224.529        127351.27     -46737.107     -52219.166      50.311558    
    689000   224.81058      126986.15     -46642.955     -52131.888      50.26343     
    690000   228.70971      127019.59     -46708.008     -52292.142      50.267841    
    691000   231.9215       127204.77     -46584.159     -52246.712      50.292258    
    692000   223.90709      127035.76     -46775.892     -52242.766      50.269974    
    693000   224.6511       126933.62     -46752.033     -52237.072      50.256499    
    694000   226.79708      126885.65     -46634.153     -52171.589      50.250166    
    695000   224.95515      127078.25     -46723.784     -52216.248      50.275579    
    696000   223.8019       126895.4      -46663.262     -52127.568      50.251454    
    697000   227.19188      126499.08     -46745.656     -52292.731      50.199083    
    698000   224.58082      126777.13     -46738.272     -52221.596      50.235836    
    699000   224.90191      126963.47     -46750.968     -52242.131      50.260438    
    700000   225.27613      127099.85     -46642.024     -52142.325      50.278427    
    701000   221.93014      126561.47     -46709.906     -52128.511      50.207335    
    702000   225.07184      127056.38     -46823.83      -52319.143      50.272693    
    703000   225.19796      126858.76     -46669.99      -52168.382      50.246616    
    704000   225.8439       126680.79     -46752.339     -52266.502      50.223108    
    705000   222.11888      126877.79     -46832.143     -52255.357      50.249128    
    706000   226.6888       127129.7      -46668.275     -52203.067      50.282363    
    707000   224.77564      126999.14     -46622.576     -52110.656      50.265144    
    708000   228.55525      127077.51     -46486.917     -52067.28       50.275481    
    709000   225.14042      127133.44     -46661.571     -52158.558      50.282855    
    710000   227.40108      126884.17     -46874.46      -52426.643      50.249971    
    711000   225.43331      126723.02     -46850.938     -52355.076      50.228688    
    712000   226.88422      126589.6      -46726.083     -52265.646      50.211054    
    713000   222.46246      126430.24     -46873.255     -52304.857      50.189976    
    714000   227.34067      127247.98     -46659.878     -52210.586      50.297952    
    715000   226.42789      126965.65     -46656.048     -52184.469      50.260724    
    716000   228.65578      126480.15     -46524.547     -52107.364      50.196579    
    717000   223.63679      126438.88     -46769.819     -52230.093      50.191119    
    718000   225.36615      126193.95     -46714.396     -52216.894      50.15869     
    719000   225.22333      126411.95     -46627.983     -52126.995      50.187555    
    720000   225.54715      126890.21     -46614.48      -52121.398      50.250768    
    721000   222.03917      126520.04     -46760.322     -52181.589      50.201855    
    722000   221.99318      126950.26     -46631.595     -52051.74       50.258694    
    723000   224.25026      126507.59     -46706.945     -52182.198      50.200209    
    724000   225.97956      127126.48     -46664.917     -52182.392      50.281938    
    725000   226.44797      127117.77     -46526.011     -52054.923      50.28079     
    726000   226.49163      126445.56     -46647.141     -52177.118      50.192003    
    727000   223.94725      126881.77     -46712.928     -52180.783      50.249654    
    728000   222.93246      126809.44     -46613.783     -52056.861      50.240103    
    729000   224.47895      127468.23     -46592.689     -52073.525      50.326955    
    730000   221.42363      127247.14     -46714.487     -52120.726      50.297841    
    731000   226.14901      127088.39     -46677.873     -52199.485      50.276916    
    732000   229.2647       127099.12     -46580.783     -52178.467      50.27833     
    733000   224.31764      127047.44     -46711.89      -52188.788      50.271515    
    734000   226.47372      127312.54     -46585.99      -52115.53       50.306456    
    735000   225.34459      127222.58     -46652.537     -52154.509      50.294604    
    736000   226.31184      127012.04     -46627.125     -52152.713      50.266845    
    737000   221.24956      126961.05     -46748.857     -52150.845      50.260118    
    738000   221.71237      126996.8      -46734.802     -52148.09       50.264835    
    739000   224.79449      127129.75     -46688.753     -52177.293      50.282369    
    740000   225.85211      126905.35     -46746.45      -52260.813      50.252767    
    741000   225.9587       127259.77     -46605.775     -52122.741      50.299505    
    742000   223.64314      126991.58     -46769.724     -52230.153      50.264147    
    743000   222.56491      127232.72     -46805.142     -52239.245      50.295941    
    744000   224.52266      126955.27     -46656.655     -52138.558      50.259355    
    745000   227.07366      126714.7      -46486.639     -52030.827      50.227589    
    746000   223.49087      126646.93     -46727.689     -52184.401      50.218633    
    747000   226.87076      126650.78     -46559.524     -52098.759      50.219142    
    748000   229.97683      127090.79     -46510.514     -52125.585      50.277232    
    749000   227.16276      127526.73     -46658.023     -52204.387      50.334652    
    750000   222.22649      126997.39     -46684.836     -52110.677      50.264913    
    751000   224.09903      127100.68     -46667.008     -52138.569      50.278536    
    752000   225.18051      126976.79     -46628.67      -52126.635      50.262195    
    753000   224.20013      127389.88     -46529.998     -52004.027      50.316642    
    754000   222.77449      127075.49     -46701.705     -52140.926      50.275214    
    755000   222.83506      127158.81     -46677.625     -52118.324      50.2862      
    756000   224.60366      126805.41     -46728.808     -52212.689      50.239572    
    757000   224.41007      127404.89     -46615.644     -52094.799      50.318617    
    758000   225.64153      127259.96     -46639.695     -52148.917      50.29953     
    759000   223.40815      127030.54     -46776.807     -52231.499      50.269285    
    760000   224.9309       127057.83     -46611.016     -52102.888      50.272886    
    761000   224.46137      127570.96     -46687.888     -52168.295      50.340471    
    762000   222.67231      127352.88     -46759.52      -52196.245      50.311769    
    763000   225.80067      127244.91     -46552.239     -52065.346      50.297547    
    764000   223.47016      127363.28     -46702.265     -52158.472      50.313139    
    765000   227.61627      127154.07     -46574.177     -52131.614      50.285575    
    766000   226.2543       126942.3      -46563.182     -52087.365      50.257644    
    767000   226.4175       127572.23     -46593.067     -52121.235      50.340638    
    768000   226.07019      127192.62     -46612.601     -52132.289      50.290657    
    769000   223.06409      127292.76     -46711.16      -52157.452      50.303851    
    770000   224.13062      127225.51     -46695.917     -52168.249      50.29499     
    771000   228.86809      127706.16     -46536.263     -52124.264      50.358248    
    772000   225.1663       127708.47     -46719.278     -52216.896      50.358551    
    773000   222.99907      127201.64     -46701.246     -52145.95       50.291845    
    774000   228.92276      127108.83     -46478.127     -52067.463      50.279611    
    775000   226.49193      127249.03     -46655.082     -52185.068      50.29809     
    776000   225.3561       126934.64     -46655.581     -52157.834      50.256633    
    777000   224.53159      127244.01     -46661.6       -52143.722      50.297429    
    778000   225.80714      127654.67     -46514.147     -52027.412      50.35148     
    779000   222.12616      127389.3      -46674.359     -52097.75       50.316565    
    780000   225.91885      126913.69     -46602.846     -52118.839      50.253868    
    781000   228.1234       127038.11     -46696.698     -52266.517      50.270284    
    782000   225.12291      126854.92     -46681.415     -52177.975      50.246109    
    783000   229.65082      127181.64     -46613.297     -52220.409      50.28921     
    784000   222.60906      127503.45     -46709.238     -52144.419      50.331589    
    785000   224.55289      126953.09     -46704.396     -52187.038      50.259067    
    786000   221.75647      126885.33     -46753.147     -52167.512      50.250124    
    787000   225.15649      126942.17     -46777.252     -52274.631      50.257626    
    788000   225.01084      127137.49     -46672.95      -52166.773      50.283389    
    789000   224.63941      127715.93     -46712.443     -52197.197      50.359533    
    790000   224.66259      126948.2      -46697.199     -52182.519      50.258422    
    791000   223.85334      127094.21     -46736.318     -52201.88       50.277683    
    792000   221.82398      126669.28     -46712.059     -52128.072      50.221587    
    793000   226.33082      127213.69     -46670.861     -52196.913      50.293433    
    794000   220.4641       126850.06     -46777.848     -52160.659      50.245467    
    795000   228.16829      126654.42     -46572.089     -52143.004      50.219623    
    796000   225.71595      126626.46     -46651.328     -52162.367      50.215928    
    797000   222.94786      126689.04     -46671.505     -52114.959      50.224199    
    798000   226.00261      126877.25     -46656.513     -52174.55       50.249057    
    799000   226.86069      127155.74     -46685.246     -52224.235      50.285796    
    800000   224.25686      127095.65     -46671.631     -52147.045      50.277873    
    801000   223.07052      127204.76     -46800.438     -52246.886      50.292257    
    802000   224.27072      127324        -46704.44      -52180.192      50.307966    
    803000   226.81255      127626.06     -46634.214     -52172.027      50.347718    
    804000   225.31387      127228.71     -46712.426     -52213.648      50.295412    
    805000   222.27761      127141.87     -46877.617     -52304.706      50.283968    
    806000   223.31091      127378        -46655.948     -52108.266      50.315077    
    807000   221.65797      127221.09     -46663.907     -52075.867      50.294408    
    808000   223.37585      127569.77     -46753.731     -52207.635      50.340315    
    809000   227.56905      127783.89     -46650.094     -52206.378      50.368464    
    810000   223.5508       127331.06     -46651.837     -52110.012      50.308895    
    811000   225.40162      127211.57     -46693.265     -52196.63       50.293154    
    812000   225.46681      126857.61     -46588.565     -52093.521      50.246465    
    813000   223.74066      127076.35     -46572.546     -52035.357      50.275327    
    814000   223.81742      127257.6      -46669.603     -52134.288      50.299219    
    815000   224.14893      126968.19     -46625.556     -52098.335      50.26106     
    816000   228.00168      126256.39     -46656.695     -52223.542      50.166961    
    817000   221.9942       126421.43     -46752.683     -52172.852      50.18881     
    818000   222.30648      126945.17     -46645.786     -52073.58       50.258022    
    819000   224.60946      126986.55     -46517.625     -52001.649      50.263483    
    820000   223.71666      126524.93     -46675.398     -52137.623      50.202503    
    821000   228.08847      126996.27     -46479.578     -52048.544      50.264765    
    822000   227.89116      126624.32     -46602.081     -52166.23       50.215645    
    823000   220.72053      127091.16     -46692.87      -52081.942      50.277281    
    824000   228.2082       127119.13     -46558.168     -52130.057      50.280969    
    825000   229.9917       126676.72     -46447.176     -52062.611      50.22257     
    826000   222.74557      127319.88     -46675.458     -52113.973      50.307423    
    827000   228.54535      127122.96     -46470.533     -52050.654      50.281473    
    828000   228.19605      126894.56     -46664.069     -52235.662      50.251342    
    829000   225.31426      126712.93     -46533.515     -52034.746      50.227355    
    830000   224.78281      126449.43     -46589.031     -52077.287      50.192515    
    831000   226.34689      127191.76     -46457.04      -51983.484      50.290542    
    832000   223.63552      126916.42     -46587.2       -52047.444      50.254227    
    833000   221.80471      126750.01     -46642.03      -52057.573      50.232254    
    834000   223.07477      127000.21     -46697.385     -52143.938      50.265285    
    835000   227.34092      127367.01     -46560.195     -52110.909      50.313629    
    836000   225.38357      127589.23     -46621.662     -52124.586      50.342875    
    837000   226.66263      127474.82     -46680.941     -52215.094      50.327822    
    838000   223.0427       127127.55     -46709.318     -52155.088      50.282079    
    839000   228.65201      127054.83     -46612.869     -52195.595      50.272489    
    840000   227.42589      126830.46     -46610.819     -52163.608      50.242879    
    841000   226.98184      127153.8      -46658.849     -52200.795      50.285539    
    842000   222.37399      127492.1      -46749.685     -52179.127      50.330096    
    843000   225.43002      127426        -46638.607     -52142.665      50.321396    
    844000   225.25697      127842.25     -46789.114     -52288.947      50.37613     
    845000   224.55779      127054.86     -46695.007     -52177.768      50.272493    
    846000   224.98438      127447.24     -46627.484     -52120.661      50.324192    
    847000   224.08075      127474.4      -46734.671     -52205.785      50.327767    
    848000   225.15027      127176.8      -46830.037     -52327.264      50.288572    
    849000   224.36216      127093.54     -46696.93      -52174.915      50.277594    
    850000   224.14833      126971.6      -46768.146     -52240.91       50.26151     
    851000   225.12306      127103.22     -46740.831     -52237.394      50.27887     
    852000   226.18867      127216.61     -46618.184     -52140.765      50.293818    
    853000   228.58113      126719.24     -46604.769     -52185.764      50.228189    
    854000   224.01167      127079.14     -46681.142     -52150.569      50.275696    
    855000   225.68029      127379.12     -46665.746     -52175.914      50.315225    
    856000   224.41084      126966.9      -46745.647     -52224.82       50.26089     
    857000   223.62011      127038.64     -46751.403     -52211.27       50.270354    
    858000   225.44026      127323.17     -46721.081     -52225.389      50.307857    
    859000   224.83822      127085.63     -46682.693     -52172.301      50.276552    
    860000   224.80194      126888.57     -46669.573     -52158.295      50.250551    
    861000   225.89375      127072        -46745.539     -52260.919      50.274754    
    862000   226.49967      126693.64     -46683.515     -52213.69       50.224806    
    863000   226.32621      126918.31     -46739.979     -52265.917      50.254477    
    864000   224.59477      127697.22     -46584.826     -52068.49       50.357074    
    865000   225.28048      127162.62     -46695.061     -52195.468      50.286703    
    866000   227.06589      127682.56     -46649.485     -52193.484      50.355147    
    867000   223.82591      126873.37     -46719.088     -52183.98       50.248545    
    868000   223.7565       126755.24     -46704.367     -52167.565      50.232945    
    869000   225.64607      127267.85     -46694.526     -52203.858      50.30057     
    870000   223.8881       126442.12     -46707.51      -52173.921      50.191548    
    871000   224.68381      126900.06     -46615.682     -52101.52       50.252068    
    872000   222.18856      126696.01     -46705.357     -52130.271      50.22512     
    873000   227.73064      127105.68     -46577.786     -52138.015      50.279196    
    874000   224.91662      126879.48     -46691.503     -52183.026      50.249352    
    875000   229.23295      127241.07     -46608.349     -52205.259      50.297041    
    876000   223.25613      127215.61     -46674.542     -52125.523      50.293686    
    877000   226.61594      126706.38     -46588.992     -52122.005      50.22649     
    878000   225.60318      127195.94     -46709.383     -52217.668      50.291094    
    879000   220.42343      127110.47     -46934.541     -52316.359      50.279826    
    880000   223.81812      127139.3      -46750.056     -52214.758      50.283628    
    881000   224.77874      127419.46     -46599.239     -52087.395      50.320535    
    882000   221.44569      127387.35     -46771.827     -52178.604      50.316308    
[...]
   7787000   223.74731      126904.78     -46590.002     -52052.975      50.252692    
   7788000   224.36644      127079.58     -46514.451     -51992.541      50.275753    
   7789000   225.68243      126944.19     -46492.51      -52002.73       50.257893    
   7790000   223.71525      127077.94     -46487.094     -51949.284      50.275538    
   7791000   224.35329      126714.64     -46381.364     -51859.133      50.227581    
   7792000   224.098        126889.2      -46520.93      -51992.466      50.250634    
   7793000   221.75908      126800.65     -46603.257     -52017.686      50.238943    
   7794000   225.06785      126886.09     -46571.476     -52066.691      50.250224    
   7795000   229.20094      127300.01     -46337.928     -51934.055      50.304806    
   7796000   226.00491      127506.18     -46460.251     -51978.345      50.331949    
   7797000   224.02839      127484.84     -46462.699     -51932.535      50.32914     
   7798000   227.3179       126929.85     -46433.339     -51983.491      50.256001    
   7799000   222.47184      127228        -46527.766     -51959.598      50.295319    
   7800000   225.11866      127222.62     -46552.232     -52048.688      50.29461     
   7801000   223.57991      127183.57     -46432.733     -51891.619      50.289463    
   7802000   225.55819      126994.11     -46493.358     -52000.545      50.26448     
   7803000   224.61017      127004.25     -46540.915     -52024.955      50.265818    
   7804000   225.20903      127302.37     -46370.955     -51869.617      50.305117    
   7805000   222.30959      126737.42     -46537.545     -51965.415      50.230591    
   7806000   225.97536      127135.19     -46463.799     -51981.171      50.283086    
   7807000   223.98701      126496.77     -46443.403     -51912.229      50.198778    
   7808000   221.93986      126507.74     -46639.906     -52058.748      50.200229    
   7809000   227.89986      126824.1      -46451.738     -52016.099      50.24204     
   7810000   227.27412      127169.01     -46469.551     -52018.634      50.287544    
   7811000   228.22034      127067.63     -46388.447     -51960.633      50.274178    
   7812000   226.71421      126841.35     -46511.312     -52046.724      50.244318    
   7813000   224.7079       127526.8      -46507.84      -51994.266      50.334662    
   7814000   227.53741      127558.72     -46448.611     -52004.122      50.33886     
   7815000   227.89201      127574.86     -46421.235     -51985.404      50.340984    
   7816000   223.63718      127427.19     -46591.461     -52051.745      50.321553    
   7817000   225.18896      127558.09     -46517.153     -52015.325      50.338778    
   7818000   225.12387      127474.93     -46592.122     -52088.705      50.327837    
   7819000   223.5326       127693.97     -46483.003     -51940.734      50.356646    
   7820000   225.96601      127543.18     -46513.4       -52030.544      50.336817    
   7821000   229.72925      127585.82     -46376.993     -51986.02       50.342426    
   7822000   224.42483      127587.6      -46524.744     -52004.259      50.342659    
   7823000   225.26107      127429.45     -46481.272     -51981.204      50.321851    
   7824000   223.24577      127036.05     -46533.665     -51984.392      50.270012    
   7825000   227.02509      127342.15     -46437.641     -51980.643      50.310356    
   7826000   223.92731      127431.69     -46577.464     -52044.832      50.322146    
   7827000   228.7636       127404.97     -46368.235     -51953.685      50.318628    
   7828000   224.86788      127296.54     -46444.925     -51935.257      50.304349    
   7829000   222.92967      127114.86     -46538.788     -51981.797      50.280406    
   7830000   226.0841       127338.77     -46627.529     -52147.557      50.309911    
   7831000   229.1572       126830.89     -46417.568     -52012.628      50.242936    
   7832000   225.15426      127325.85     -46603.213     -52100.538      50.308209    
   7833000   223.36387      127251.34     -46622.823     -52076.434      50.298394    
   7834000   224.83602      127140.96     -46445.592     -51935.147      50.283846    
   7835000   225.91266      126821.36     -46544.269     -52060.11       50.241678    
   7836000   227.55854      127173.62     -46524.78      -52080.807      50.288152    
   7837000   228.10907      126624.22     -46535.58      -52105.049      50.215632    
   7838000   226.37909      127096.3      -46598.595     -52125.826      50.277958    
   7839000   229.18562      127419.94     -46466.664     -52062.418      50.320598    
   7840000   222.18497      126920.21     -46630.539     -52055.366      50.254728    
   7841000   222.36364      126772.84     -46594.834     -52024.023      50.23527     
   7842000   225.64861      126809.08     -46413.735     -51923.13       50.240056    
   7843000   223.92049      126933.21     -46548.097     -52015.298      50.256444    
   7844000   228.97059      127043.9      -46321.106     -51911.609      50.271048    
   7845000   224.34844      126776.81     -46571.032     -52048.682      50.235794    
   7846000   227.59924      126881.07     -46515.219     -52072.24       50.249562    
   7847000   228.33537      127228.74     -46384.946     -51959.94       50.295417    
   7848000   227.21635      127252.62     -46490.429     -52038.102      50.298563    
   7849000   224.52806      127095.63     -46540.713     -52022.748      50.277871    
   7850000   224.9525       127011.51     -46579.852     -52072.251      50.266775    
   7851000   222.03769      126748.8      -46605.196     -52026.427      50.232095    
   7852000   223.56727      127137.52     -46483.947     -51942.524      50.283394    
   7853000   223.46703      126923.11     -46621.809     -52077.939      50.255111    
   7854000   227.61628      127216.38     -46440.488     -51997.925      50.293788    
   7855000   225.10076      126270.51     -46481.193     -51977.211      50.168831    
   7856000   223.40729      126879.42     -46464.112     -51918.783      50.249344    
   7857000   225.89024      126898.97     -46464.079     -51979.373      50.251925    
   7858000   228.68288      126843.9      -46331.753     -51915.232      50.244654    
   7859000   220.81495      127146.56     -46588.211     -51979.588      50.284585    
   7860000   225.51438      126756.1      -46556.332     -52062.449      50.233058    
   7861000   223.72717      126911.57     -46463.257     -51925.738      50.253587    
   7862000   225.64601      126758.37     -46419.633     -51928.965      50.233358    
   7863000   228.01098      126897.91     -46355.859     -51922.932      50.251784    
   7864000   221.38481      126743.4      -46700.659     -52105.949      50.231381    
   7865000   225.95053      126902.89     -46572.731     -52089.497      50.252442    
   7866000   227.34097      126534.18     -46584.933     -52135.648      50.203726    
   7867000   226.04976      127344.83     -46373.535     -51892.724      50.310709    
   7868000   224.79986      126863.33     -46532.526     -52021.198      50.247219    
   7869000   223.59295      127108.29     -46614.652     -52073.856      50.279539    
   7870000   225.43252      126969.51     -46513.841     -52017.96       50.261234    
   7871000   226.79107      126628.56     -46450.486     -51987.775      50.216205    
   7872000   224.64807      126593.03     -46602.7       -52087.666      50.211509    
   7873000   227.64741      126821.57     -46474.209     -52032.406      50.241706    
   7874000   226.14176      126248.9      -46484.151     -52005.587      50.165968    
   7875000   224.05515      127399.16     -46424.4       -51894.889      50.317864    
   7876000   226.79932      126523.15     -46500.609     -52038.099      50.202267    
   7877000   223.20885      126389.09     -46611.144     -52060.97       50.184531    
   7878000   223.35115      126464.02     -46473.603     -51926.903      50.194445    
   7879000   221.6589       126211.1      -46672.525     -52084.507      50.160961    
   7880000   226.44321      126071.95     -46492.824     -52021.619      50.14252     
   7881000   225.81641      126074.05     -46492.614     -52006.106      50.142798    
   7882000   225.12586      125965.06     -46557.557     -52054.189      50.128345    
   7883000   225.95307      126358.52     -46458.467     -51975.296      50.180484    
   7884000   224.13394      126554.77     -46571.801     -52044.214      50.20645     
   7885000   224.99658      126330.67     -46519.412     -52012.887      50.176796    
   7886000   224.78212      126126.39     -46529.863     -52018.102      50.149736    
   7887000   219.93198      126249.52     -46697.056     -52066.874      50.166051    
   7888000   223.08506      126147.33     -46584.182     -52030.985      50.152511    
   7889000   224.62493      126872.61     -46370.815     -51855.216      50.248445    
   7890000   225.17615      126669        -46562.399     -52060.259      50.221551    
   7891000   223.33008      126779.57     -46556.425     -52009.211      50.236159    
   7892000   222.55082      126936.23     -46545.889     -51979.648      50.256842    
   7893000   224.28238      126885.49     -46586.134     -52062.171      50.250145    
   7894000   224.13706      127102.86     -46518.062     -51990.551      50.278823    
   7895000   224.54357      127192.01     -46625.041     -52107.456      50.290577    
   7896000   224.40703      126653.2      -46497.56      -51976.64       50.219462    
   7897000   224.12742      127079.05     -46626.118     -52098.371      50.275684    
   7898000   224.42413      126806.12     -46496.835     -51976.333      50.239666    
   7899000   226.79885      126911.31     -46527.565     -52065.043      50.253553    
   7900000   225.9303       127243.14     -46590.395     -52106.668      50.297314    
   7901000   224.06335      127350.97     -46596.534     -52067.224      50.311518    
   7902000   222.82971      126986.67     -46659.658     -52100.227      50.263498    
   7903000   223.40506      126959.19     -46527.864     -51982.481      50.259873    
   7904000   219.56631      127013.97     -46667.461     -52028.351      50.2671      
   7905000   224.61877      127197.35     -46436.401     -51920.652      50.291279    
   7906000   225.96594      127160.44     -46462.748     -51979.89       50.286415    
   7907000   224.58972      127112.74     -46477.184     -51960.725      50.280126    
   7908000   222.92794      126557.13     -46671.112     -52114.08       50.206761    
   7909000   224.68395      126934.11     -46471.243     -51957.085      50.256563    
   7910000   228.81457      126846.67     -46346.528     -51933.222      50.245021    
   7911000   230.65519      126876.3      -46331.818     -51963.452      50.248932    
   7912000   223.32572      126619        -46526.384     -51979.063      50.214941    
   7913000   227.79656      127183.35     -46451.23      -52013.068      50.289435    
   7914000   227.62258      126232.26     -46449.083     -52006.673      50.163764    
   7915000   226.33151      126653        -46506.54      -52032.608      50.219436    
   7916000   224.27143      126742.69     -46524.138     -51999.908      50.231287    
   7917000   224.66845      126902.83     -46568.83      -52054.293      50.252434    
   7918000   227.95839      126668.44     -46498.287     -52064.077      50.221476    
   7919000   223.22122      126833.08     -46642.813     -52092.941      50.243226    
   7920000   227.35946      127138.54     -46523.259     -52074.425      50.283527    
   7921000   224.42145      127195.62     -46522.191     -52001.623      50.291052    
   7922000   223.61355      127072.41     -46692.626     -52152.334      50.274808    
   7923000   223.14419      126722.41     -46623.037     -52071.284      50.228608    
   7924000   222.94392      126519.15     -46528.706     -51972.063      50.201738    
   7925000   223.90454      126281.38     -46546.645     -52013.457      50.170271    
   7926000   225.57113      127026.79     -46554.794     -52062.297      50.268791    
   7927000   225.95749      126845.76     -46561.093     -52078.03       50.2449      
   7928000   227.93898      126718.84     -46554.542     -52119.858      50.228136    
   7929000   228.27922      126779.34     -46447.015     -52020.638      50.236128    
   7930000   226.76008      126634.78     -46564.462     -52100.994      50.217027    
   7931000   224.65021      126694.06     -46631.555     -52116.573      50.224862    
   7932000   226.04505      126775.5      -46537.857     -52056.931      50.235621    
   7933000   219.3826       126557.98     -46762.635     -52119.04       50.206874    
   7934000   226.0418       126412.06     -46582.739     -52101.734      50.18757     
   7935000   225.1444       126574.93     -46538.679     -52035.763      50.209115    
   7936000   224.79521      126905.39     -46555.542     -52044.1        50.252772    
   7937000   223.73619      126676.48     -46637.739     -52100.441      50.222538    
   7938000   225.65767      126354.82     -46647.497     -52157.113      50.179993    
   7939000   225.70237      127050.92     -46569.336     -52080.043      50.271974    
   7940000   223.40565      126512.3      -46654.641     -52109.272      50.200833    
   7941000   224.87791      126648.07     -46648.344     -52138.921      50.218784    
   7942000   222.74715      126505.68     -46672.306     -52110.859      50.199957    
   7943000   226.70445      127055.57     -46666.325     -52201.499      50.272588    
   7944000   227.8727       126416.95     -46554.713     -52118.411      50.188217    
   7945000   222.11585      126461.82     -46799.289     -52222.429      50.194154    
   7946000   229.91518      126437.64     -46537.339     -52150.906      50.190955    
   7947000   225.40999      126771.93     -46634.074     -52137.643      50.23515     
   7948000   222.96464      126805.7      -46713.248     -52157.111      50.23961     
   7949000   223.48224      126634.18     -46692.487     -52148.988      50.216949    
   7950000   224.63756      126472.26     -46614.705     -52099.414      50.195536    
   7951000   222.45312      127151.8      -46677.122     -52108.497      50.285276    
   7952000   222.71903      126367.03     -46671.553     -52109.42       50.18161     
   7953000   223.99631      126234.83     -46697.425     -52166.477      50.164105    
   7954000   226.04458      126760.77     -46553.813     -52072.875      50.233675    
   7955000   225.86978      126767.38     -46521.418     -52036.213      50.234549    
   7956000   228.36288      126650.5      -46528.553     -52104.219      50.219105    
   7957000   223.60394      126689.93     -46604.254     -52063.726      50.224316    
   7958000   225.14963      127234.41     -46585.162     -52082.374      50.296164    
   7959000   226.46845      126739.74     -46546.049     -52075.46       50.230897    
   7960000   222.62391      127039.29     -46644.726     -52080.27       50.27044     
   7961000   226.62795      126758.76     -46512.445     -52045.752      50.23341     
   7962000   228.6          126902.28     -46496.527     -52077.982      50.252361    
   7963000   227.18364      126962.6      -46597.073     -52143.947      50.260323    
   7964000   224.19629      126578.9      -46666.456     -52140.391      50.20964     
   7965000   223.13969      126498.24     -46578.534     -52026.672      50.198972    
   7966000   222.53932      126891.26     -46661.679     -52095.158      50.250906    
   7967000   225.19439      126952.88     -46557.069     -52055.373      50.259039    
   7968000   225.60849      127246.05     -46539.288     -52047.704      50.297697    
   7969000   224.67893      126764.5      -46513.267     -51998.986      50.234168    
   7970000   224.96163      126960.51     -46483.766     -51976.388      50.260046    
   7971000   226.03838      126442.48     -46584.331     -52103.243      50.191596    
   7972000   225.38645      126735.03     -46570.981     -52073.975      50.230276    
   7973000   225.9656       126689.78     -46573.878     -52091.012      50.224296    
   7974000   225.1127       126362.99     -46599.971     -52096.281      50.181075    
   7975000   225.19665      126502.73     -46590.277     -52088.637      50.199567    
   7976000   223.55672      126743.53     -46612.379     -52070.698      50.231399    
   7977000   226.08176      127015.61     -46506.193     -52026.163      50.267316    
   7978000   222.09525      126816.24     -46621.633     -52044.27       50.241001    
   7979000   226.20952      126461.27     -46444.933     -51968.023      50.194081    
   7980000   226.41432      127309.66     -46516.844     -52044.934      50.306077    
   7981000   226.5463       126873.73     -46387.833     -51919.145      50.248592    
   7982000   227.0183       126967.03     -46575.972     -52118.809      50.260907    
   7983000   225.85597      126751.92     -46505.628     -52020.085      50.232507    
   7984000   224.19049      126985.1      -46546.25      -52020.043      50.263291    
   7985000   224.60439      126597.53     -46442.095     -51925.994      50.212103    
   7986000   225.65704      126724.54     -46623.214     -52132.815      50.22889     
   7987000   225.87969      126875.33     -46518.159     -52033.196      50.248803    
   7988000   225.70699      127111.61     -46598.66      -52109.48       50.279978    
   7989000   224.85545      126530.1      -46595.275     -52085.304      50.203187    
   7990000   225.9779       126250.99     -46507.009     -52024.444      50.166245    
   7991000   227.29946      126798.34     -46600.469     -52150.17       50.238638    
   7992000   222.50292      126590.67     -46584.206     -52016.797      50.211197    
   7993000   223.67288      126585.5      -46541.188     -52002.343      50.210512    
   7994000   225.40083      126674.87     -46549.818     -52053.163      50.222326    
   7995000   225.40891      126659.93     -46453.978     -51957.52       50.220351    
   7996000   224.61557      126599.98     -46647.155     -52131.327      50.212427    
   7997000   225.48441      126341.26     -46549.121     -52054.507      50.178199    
   7998000   226.40158      126354.38     -46486.496     -52014.275      50.179936    
   7999000   225.58881      126826.89     -46548.883     -52056.818      50.242409    
   8000000   224.53207      126841.51     -46568.354     -52050.487      50.244338    
Loop time of 5000.76 on 56 procs for 1000000 steps with 12288 atoms

Performance: 17.277 ns/day, 1.389 hours/ns, 199.970 timesteps/s, 2.457 Matom-step/s
99.8% CPU use with 56 MPI tasks x no OpenMP threads

MPI task timing breakdown:
Section |  min time  |  avg time  |  max time  |%varavg| %total
---------------------------------------------------------------
Pair    | 2518       | 2658.5     | 2876.1     | 124.4 | 53.16
Bond    | 0.18756    | 0.29158    | 0.44494    |   9.1 |  0.01
Kspace  | 1112.3     | 1330       | 1470.7     | 175.9 | 26.60
Neigh   | 171.95     | 172.02     | 172.08     |   0.3 |  3.44
Comm    | 144.25     | 147.15     | 149.75     |  11.3 |  2.94
Output  | 3.4255     | 6.3709     | 8.8691     |  57.2 |  0.13
Modify  | 511.95     | 560.67     | 665.99     | 145.6 | 11.21
Other   |            | 125.8      |            |       |  2.51

Nlocal:        219.429 ave         232 max         206 min
Histogram: 2 6 2 8 9 7 10 3 6 3
Nghost:        6704.88 ave        6746 max        6669 min
Histogram: 2 4 6 12 8 10 6 4 3 1
Neighs:        93498.2 ave       99981 max       86029 min
Histogram: 1 2 6 7 8 9 7 12 1 3

Total # of neighbors = 5235901
Ave neighs/atom = 426.09871
Ave special neighs/atom = 2
Neighbor list builds = 14132
Dangerous builds = 0
undump dH2O
Total wall time: 11:05:18
