LAMMPS (22 Jul 2025 - Update 1)
units real
atom_style full
boundary p p p

# package intel 1 omp 2

pair_style lj/cut/tip4p/long 1 2 1 1 0.1546 9.5

bond_style zero
angle_style zero
pair_modify tail yes

read_data equilibration_NVT_${T}.data
read_data equilibration_NVT_246.data
Reading data file ...
  orthogonal box = (0 0 0) to (24.89526 24.89526 24.89526)
  2 by 4 by 7 MPI processor grid
  reading atoms ...
  1536 atoms
  reading velocities ...
  1536 velocities
  scanning bonds ...
  2 = max bonds/atom
  scanning angles ...
  1 = max angles/atom
  orthogonal box = (0 0 0) to (24.89526 24.89526 24.89526)
  2 by 4 by 7 MPI processor grid
  reading bonds ...
  1024 bonds
  reading angles ...
  512 angles
Finding 1-2 1-3 1-4 neighbors ...
  special bond factors lj:    0        0        0       
  special bond factors coul:  0        0        0       
     2 = max # of 1-2 neighbors
     1 = max # of 1-3 neighbors
     1 = max # of 1-4 neighbors
     2 = max # of special neighbors
  special bonds CPU = 0.003 seconds
  read_data CPU = 0.044 seconds
replicate 2 2 2
Replication is creating a 2x2x2 = 8 times larger system...
  orthogonal box = (0 0 0) to (49.79052 49.79052 49.79052)
  2 by 4 by 7 MPI processor grid
  12288 atoms
  8192 bonds
  4096 angles
Finding 1-2 1-3 1-4 neighbors ...
  special bond factors lj:    0        0        0       
  special bond factors coul:  0        0        0       
     2 = max # of 1-2 neighbors
     1 = max # of 1-3 neighbors
     1 = max # of 1-4 neighbors
     2 = max # of special neighbors
  special bonds CPU = 0.004 seconds
  replicate CPU = 0.010 seconds

print "Initial configuration loaded."
Initial configuration loaded.
reset_timestep 0
print "Applying shear rate: ${gamma}"
Applying shear rate: 2.5e-5
change_box all triclinic
Changing box ...
  triclinic box = (0 0 0) to (49.79052 49.79052 49.79052) with tilt (0 0 0)
kspace_style pppm/tip4p 1.0e-5

pair_coeff 1 1 0.18521 3.1589 #O-O
pair_coeff * 2 0.0 0.0

bond_coeff 1 0.9572 #O-H
angle_coeff 1 104.52 #H-O-H

group gH2O type 1 2
12288 atoms in group gH2O
group gO type 1
4096 atoms in group gO

neighbor 3.0 bin
neigh_modify delay 0 every 1 check yes

timestep 1.0
fix 1 gH2O shake 1.0e-4 100 0 b 1 a 1
Finding SHAKE clusters ...
       0 = # of size 2 clusters
       0 = # of size 3 clusters
       0 = # of size 4 clusters
    4096 = # of frozen angles
  find clusters CPU = 0.003 seconds

# 系统弛豫到平衡态
fix fnvt_equil all nvt temp ${T} ${T} 100.0
fix fnvt_equil all nvt temp 246 ${T} 100.0
fix fnvt_equil all nvt temp 246 246 100.0
thermo 1000
thermo_style custom step temp etotal pe
thermo_modify flush yes
run 500000 # 500 ps
PPPM initialization ...
  extracting TIP4P info from pair style
  using 12-bit tables for long-range coulomb
  G vector (1/distance) = 0.32815664
  grid = 50 50 50
  stencil order = 5
  estimated absolute RMS force accuracy = 0.0035802102
  estimated relative force accuracy = 1.0781697e-05
  using double precision KISS FFT
  3d grid and FFT values/proc = 11424 2800
WARNING: Communication cutoff 0 is shorter than a bond length based estimate of 4.4358. This may lead to errors. (../comm.cpp:743)
WARNING: Increasing communication cutoff to 13.6118 for TIP4P pair style (../pair_lj_cut_tip4p_long.cpp:497)
Generated 0 of 1 mixed pair_coeff terms from geometric mixing rule
Neighbor list info ...
  update: every = 1 steps, delay = 0 steps, check = yes
  max neighbors/atom: 2000, page size: 100000
  master list distance cutoff = 12.8092
  ghost atom cutoff = 13.6118
  binsize = 6.4046, bins = 8 8 8
  1 neighbor lists, perpetual/occasional/extra = 1 0 0
  (1) pair lj/cut/tip4p/long, perpetual
      attributes: half, newton on
      pair build: half/bin/newton/tri
      stencil: half/bin/3d/tri
      bin: standard
Per MPI rank memory allocation (min/avg/max) = 9.169 | 9.314 | 9.649 Mbytes
   Step          Temp          TotEng         PotEng    
         0   249.85227     -43968.916     -50069.263    
      1000   252.26714     -44345.086     -50504.394    
      2000   246.73242     -44266.113     -50290.286    
      3000   243.01648     -44479.776     -50413.221    
      4000   245.56819     -44313.14      -50308.887    
      5000   245.61507     -44359.134     -50356.026    
      6000   247.64856     -44350.257     -50396.799    
      7000   242.46879     -44317.446     -50237.519    
      8000   249.15194     -44135.963     -50219.211    
      9000   247.8432      -44149.122     -50200.416    
     10000   245.12637     -44245.775     -50230.735    
     11000   249.97106     -44221.24      -50324.488    
     12000   244.57291     -44309.512     -50280.959    
     13000   246.42474     -44466.803     -50483.464    
     14000   242.343       -44447.182     -50364.183    
     15000   247.34518     -44245.714     -50284.848    
     16000   245.66333     -44285.286     -50283.356    
     17000   244.13725     -44146.044     -50106.854    
     18000   246.69913     -44330.318     -50353.678    
     19000   246.96348     -44278.196     -50308.011    
     20000   244.63527     -44289.074     -50262.044    
     21000   245.42247     -44230.312     -50222.501    
     22000   243.16223     -44240.219     -50177.223    
     23000   245.63694     -44431.705     -50429.131    
     24000   247.53924     -44335.239     -50379.111    
     25000   243.89819     -44389.933     -50344.906    
     26000   242.66802     -44375.96      -50300.898    
     27000   246.25134     -44359.262     -50371.689    
     28000   246.19141     -44370.715     -50381.679    
     29000   243.66321     -44396.292     -50345.528    
     30000   248.12913     -44251.316     -50309.591    
     31000   245.26595     -44290.706     -50279.074    
     32000   244.67131     -44336.828     -50310.677    
     33000   247.71871     -44256.434     -50304.689    
     34000   246.05886     -44313.658     -50321.386    
     35000   244.9362      -44369.646     -50349.963    
     36000   244.70824     -44353.063     -50327.814    
     37000   253.14953     -44095.39      -50276.242    
     38000   246.82357     -44164.028     -50190.427    
     39000   244.08146     -44334.851     -50294.299    
     40000   243.69517     -44421.192     -50371.208    
     41000   246.6648      -44170.89      -50193.412    
     42000   243.97154     -44391.338     -50348.102    
     43000   240.7079      -44591.32      -50468.4      
     44000   248.22224     -44285.384     -50345.932    
     45000   246.80029     -44119.41      -50145.24     
     46000   247.62253     -44158.318     -50204.224    
     47000   243.78848     -44322.354     -50274.648    
     48000   246.16326     -44298.708     -50308.985    
     49000   244.42989     -44271.535     -50239.49     
     50000   245.45973     -44347.381     -50340.48     
     51000   243.7659      -44227.606     -50179.349    
     52000   246.02039     -44260.298     -50267.087    
     53000   248.60653     -44183.72      -50253.651    
     54000   244.93826     -44206.333     -50186.7      
     55000   246.95283     -44251.994     -50281.549    
     56000   245.61659     -44450.566     -50447.496    
     57000   247.37286     -44229.42      -50269.23     
     58000   247.83213     -44222.188     -50273.212    
     59000   242.96213     -44394.745     -50326.863    
     60000   251.62787     -44183.589     -50327.288    
     61000   248.2886      -44331.195     -50393.364    
     62000   246.41433     -44389.34      -50405.747    
     63000   245.48175     -44319.835     -50313.472    
     64000   247.88317     -44329.103     -50381.372    
     65000   244.52775     -44226.137     -50196.481    
     66000   244.34664     -44334.559     -50300.481    
     67000   244.91061     -44264.546     -50244.239    
     68000   250.46766     -44098.944     -50214.316    
     69000   245.70684     -44302.389     -50301.522    
     70000   244.98028     -44229.487     -50210.88     
     71000   243.8161      -44330.192     -50283.161    
     72000   242.91118     -44245.733     -50176.607    
     73000   246.54677     -44289.043     -50308.683    
     74000   245.7772      -44274.95      -50275.8      
     75000   243.16751     -44279.245     -50216.378    
     76000   243.87503     -44234.832     -50189.24     
     77000   247.14329     -44089.201     -50123.406    
     78000   242.65948     -44292.453     -50217.182    
     79000   247.47098     -44158.918     -50201.124    
     80000   243.72261     -44233.609     -50184.295    
     81000   248.98849     -44201.878     -50281.135    
     82000   243.34143     -44220.752     -50162.132    
     83000   246.95794     -44223.208     -50252.887    
     84000   246.69907     -44243.8       -50267.159    
     85000   240.35452     -44570.289     -50438.741    
     86000   247.16119     -44178.893     -50213.534    
     87000   246.47716     -44222.487     -50240.428    
     88000   247.30248     -44201.455     -50239.547    
     89000   247.79818     -44173.968     -50224.162    
     90000   247.58502     -44165.4       -50210.39     
     91000   246.94811     -44220.835     -50250.274    
     92000   244.15164     -44328.314     -50289.475    
     93000   246.14365     -44311.7       -50321.498    
     94000   245.07981     -44330.829     -50314.653    
     95000   248.21715     -44215.281     -50275.705    
     96000   246.07298     -44327.097     -50335.17     
     97000   244.92256     -44224.942     -50204.926    
     98000   244.45625     -44362.334     -50330.932    
     99000   245.22086     -44254.455     -50241.722    
    100000   246.6795      -44308.138     -50331.019    
    101000   249.10697     -44246.022     -50328.172    
    102000   246.34367     -44291.167     -50305.849    
    103000   249.03911     -44244.105     -50324.598    
    104000   245.51032     -44317.977     -50312.312    
    105000   244.89512     -44266.396     -50245.71     
    106000   245.4241      -44301.601     -50293.83     
    107000   245.86978     -44411.269     -50414.38     
    108000   240.81142     -44499.357     -50378.964    
    109000   244.52745     -44318.311     -50288.648    
    110000   248.23723     -44287.955     -50348.869    
    111000   243.59712     -44227.926     -50175.548    
    112000   246.80932     -44234.252     -50260.303    
    113000   244.69247     -44292.851     -50267.217    
    114000   248.48792     -44120.253     -50187.288    
    115000   245.59911     -44243.439     -50239.942    
    116000   243.69663     -44314.325     -50264.377    
    117000   246.83794     -44220.287     -50247.037    
    118000   245.53708     -44272.681     -50267.669    
    119000   249.03669     -44149.355     -50229.789    
    120000   246.83375     -44148.589     -50175.236    
    121000   246.90661     -44093.801     -50122.227    
    122000   248.12711     -43954.181     -50012.407    
    123000   245.03413     -44187.566     -50170.274    
    124000   246.76366     -44108.443     -50133.379    
    125000   247.45958     -44156.567     -50198.494    
    126000   246.01731     -44351.904     -50358.617    
    127000   247.68374     -44277.855     -50325.255    
    128000   245.22689     -44305.351     -50292.766    
    129000   244.05781     -44241.833     -50200.704    
    130000   249.06809     -44152.02      -50233.221    
    131000   248.32194     -44222.996     -50285.979    
    132000   246.85583     -44286.666     -50313.852    
    133000   245.41877     -44180.576     -50172.675    
    134000   243.78792     -44255.336     -50207.617    
    135000   245.88847     -44152.601     -50156.169    
    136000   244.20659     -44329.17      -50291.673    
    137000   248.7462      -44112.278     -50185.619    
    138000   244.56731     -44251.655     -50222.965    
    139000   246.26        -44061.29      -50073.929    
    140000   246.97056     -44248.242     -50278.23     
    141000   246.17258     -44034.074     -50044.578    
    142000   246.0348      -44190.278     -50197.418    
    143000   247.36996     -44170.57      -50210.309    
    144000   247.40497     -44287.122     -50327.715    
    145000   246.44095     -44137.59      -50154.647    
    146000   242.34686     -44338.855     -50255.951    
    147000   247.90178     -44191.659     -50244.383    
    148000   243.67191     -44148.724     -50098.172    
    149000   244.10543     -44328.609     -50288.642    
    150000   246.56962     -44255.839     -50276.037    
    151000   245.95641     -44230.244     -50235.47     
    152000   250.20971     -44216.218     -50325.293    
    153000   241.51616     -44415.96      -50312.774    
    154000   244.23197     -44442.187     -50405.309    
    155000   246.23573     -44164.795     -50176.841    
    156000   252.32078     -44153.384     -50314.002    
    157000   242.85731     -44263.833     -50193.392    
    158000   244.14539     -44308.661     -50269.67     
    159000   244.78607     -44329.393     -50306.045    
    160000   247.62979     -44336.33      -50382.413    
    161000   247.89327     -44321.591     -50374.107    
    162000   244.94771     -44295.209     -50275.807    
    163000   249.23049     -44301.8       -50386.965    
    164000   246.86639     -44276.521     -50303.966    
    165000   251.76613     -44089.152     -50236.228    
    166000   243.16777     -44352.765     -50289.904    
    167000   245.53486     -44182.688     -50177.622    
    168000   247.0079      -44255.715     -50286.615    
    169000   248.14036     -44188.25      -50246.799    
    170000   242.5788      -44427.459     -50350.218    
    171000   244.92626     -44197.89      -50177.964    
    172000   246.66656     -44266.507     -50289.072    
    173000   249.03722     -44054.715     -50135.162    
    174000   244.41551     -44306.858     -50274.462    
    175000   249.23326     -44184.913     -50270.146    
    176000   245.95345     -44341.562     -50346.716    
    177000   244.93761     -44327.446     -50307.798    
    178000   247.198       -44350.625     -50386.165    
    179000   243.55267     -44328.393     -50274.93     
    180000   245.00219     -44323.703     -50305.631    
    181000   245.65952     -44167.809     -50165.787    
    182000   243.05322     -44328.393     -50262.736    
    183000   248.15648     -44176.337     -50235.28     
    184000   248.03364     -44105.696     -50161.639    
    185000   244.68249     -44288.952     -50263.075    
    186000   246.93895     -44251.599     -50280.815    
    187000   249.2191      -44157.605     -50242.492    
    188000   243.48736     -44386.571     -50331.514    
    189000   244.08779     -44317.899     -50277.501    
    190000   244.39624     -44449.989     -50417.123    
    191000   247.97987     -44365.73      -50420.36     
    192000   246.45039     -44330.362     -50347.649    
    193000   244.72358     -44361.381     -50336.507    
    194000   249.04696     -44294.603     -50375.288    
    195000   250.2843      -44116.343     -50227.238    
    196000   242.79815     -44399.163     -50327.278    
    197000   247.24312     -44230.723     -50267.365    
    198000   244.46272     -44287.154     -50255.911    
    199000   246.28115     -44378.189     -50391.344    
    200000   244.88966     -44401.774     -50380.954    
    201000   241.14354     -44505.701     -50393.417    
    202000   245.44332     -44245.838     -50238.537    
    203000   243.01913     -44186.23      -50119.741    
    204000   245.77259     -44256.173     -50256.911    
    205000   245.50441     -44214.163     -50208.354    
    206000   246.03299     -44283.572     -50290.668    
    207000   248.81543     -44079.345     -50154.376    
    208000   247.02832     -44254.515     -50285.913    
    209000   245.08467     -44068.9       -50052.842    
    210000   245.65397     -44250.61      -50248.451    
    211000   246.12536     -44132.667     -50142.018    
    212000   244.95671     -44259.014     -50239.832    
    213000   247.22189     -44128.142     -50164.266    
    214000   245.66028     -44244.835     -50242.831    
    215000   244.58192     -44304.345     -50276.012    
    216000   247.07028     -44321.711     -50354.134    
    217000   250.66427     -44147.721     -50267.893    
    218000   245.7374      -44339.196     -50339.075    
    219000   250.13439     -44246.66      -50353.895    
    220000   242.58605     -44402.405     -50325.341    
    221000   245.45757     -44254.806     -50247.853    
    222000   245.48067     -44287.079     -50280.69     
    223000   245.77474     -44313.151     -50313.941    
    224000   245.63913     -44193.962     -50191.442    
    225000   245.97102     -44390.521     -50396.104    
    226000   242.24225     -44382.606     -50297.148    
    227000   242.96393     -44306.379     -50238.541    
    228000   244.82718     -44298.691     -50276.346    
    229000   244.09823     -44320.961     -50280.818    
    230000   247.77107     -44153.014     -50202.547    
    231000   245.46314     -44175.567     -50168.75     
    232000   245.49193     -44152.419     -50146.304    
    233000   246.78718     -44267.259     -50292.769    
    234000   244.68036     -44206.231     -50180.302    
    235000   245.25829     -44306.292     -50294.473    
    236000   244.19001     -44098.409     -50060.508    
    237000   246.38999     -44278.01      -50293.823    
    238000   246.4536      -44177.415     -50194.78     
    239000   242.2427      -44276.54      -50191.093    
    240000   245.35347     -44170.66      -50161.165    
    241000   244.52111     -44208.611     -50178.793    
    242000   243.92693     -44339.319     -50294.994    
    243000   250.73601     -44159.398     -50281.322    
    244000   247.30493     -44219.646     -50257.798    
    245000   242.75525     -44443.704     -50370.771    
    246000   246.90481     -44300.296     -50328.679    
    247000   245.63739     -44279.806     -50277.243    
    248000   244.22261     -44438.764     -50401.658    
    249000   245.68215     -44354.689     -50353.219    
    250000   242.57559     -44513.066     -50435.747    
    251000   246.79584     -44272.707     -50298.429    
    252000   241.33026     -44479.075     -50371.35     
    253000   247.02123     -44193.804     -50225.028    
    254000   244.33566     -44258.809     -50224.464    
    255000   246.37173     -44191.626     -50206.993    
    256000   247.24815     -44295.506     -50332.271    
    257000   242.84654     -44304.044     -50233.341    
    258000   243.09321     -44288.491     -50223.81     
    259000   245.20705     -44210.99      -50197.92     
    260000   247.02359     -44128.173     -50159.455    
    261000   245.47042     -44325.862     -50319.223    
    262000   245.61525     -44428.237     -50425.134    
    263000   244.26665     -44303.827     -50267.796    
    264000   244.14704     -44219.854     -50180.902    
    265000   244.81752     -44243.063     -50220.482    
    266000   244.55377     -44301.667     -50272.647    
    267000   243.26993     -44438.562     -50378.195    
    268000   243.21588     -44459.717     -50398.031    
    269000   247.53963     -44204.116     -50247.998    
    270000   243.60142     -44339.322     -50287.049    
    271000   247.77529     -44180.071     -50229.707    
    272000   246.91702     -44276.349     -50305.029    
    273000   243.9862      -44331.076     -50288.198    
    274000   247.34611     -44281.294     -50320.451    
    275000   248.27523     -44362.286     -50424.128    
    276000   246.9962      -44290.33      -50320.943    
    277000   244.56077     -44379.102     -50350.253    
    278000   246.60564     -44202.277     -50223.355    
    279000   250.86099     -44272.938     -50397.913    
    280000   244.14598     -44429.457     -50390.48     
    281000   246.43036     -44352.046     -50368.844    
    282000   246.35867     -44253.66      -50268.708    
    283000   249.24509     -44292.055     -50377.577    
    284000   244.44325     -44328.813     -50297.094    
    285000   244.56292     -44373.37      -50344.573    
    286000   249.77446     -44228.119     -50326.565    
    287000   244.66844     -44371.006     -50344.785    
    288000   249.8197      -44127.221     -50226.772    
    289000   248.66314     -44213.916     -50285.229    
    290000   246.38499     -44367.027     -50382.717    
    291000   245.38611     -44453.554     -50444.855    
    292000   251.05099     -44208.135     -50337.749    
    293000   248.16166     -44345.137     -50404.206    
    294000   248.56279     -44203.245     -50272.108    
    295000   246.25506     -44201.154     -50213.672    
    296000   246.39382     -44291.761     -50307.667    
    297000   250.51426     -44127.104     -50243.614    
    298000   245.40876     -44415.69      -50407.545    
    299000   247.14487     -44294.854     -50329.098    
    300000   247.00404     -44315.853     -50346.659    
    301000   244.44563     -44327.883     -50296.222    
    302000   244.86999     -44397.545     -50376.245    
    303000   245.07938     -44432.362     -50416.175    
    304000   248.60668     -44341.092     -50411.027    
    305000   245.01874     -44398.694     -50381.026    
    306000   245.79847     -44354.255     -50355.625    
    307000   245.65454     -44394.263     -50392.119    
    308000   238.05134     -44542.381     -50354.598    
    309000   246.77097     -44386.363     -50411.478    
    310000   244.31637     -44535.508     -50500.692    
    311000   247.12847     -44383.432     -50417.275    
    312000   247.19876     -44292.206     -50327.765    
    313000   249.07785     -44113.694     -50195.133    
    314000   244.47748     -44279.461     -50248.578    
    315000   244.97869     -44332.027     -50313.381    
    316000   245.84344     -44346.429     -50348.897    
    317000   247.46845     -44304.913     -50347.057    
    318000   249.03976     -44228.679     -50309.188    
    319000   245.78135     -44330.165     -50331.117    
    320000   244.85106     -44355.201     -50333.439    
    321000   248.24791     -44097.636     -50158.811    
    322000   248.05025     -44371.582     -50427.931    
    323000   246.34994     -44326.801     -50341.636    
    324000   248.51665     -44284.839     -50352.576    
    325000   245.03395     -44344.917     -50327.621    
    326000   246.20623     -44371.091     -50382.417    
    327000   244.7273      -44296.633     -50271.85     
    328000   240.24039     -44491.877     -50357.542    
    329000   246.58274     -44327.007     -50347.526    
    330000   241.69279     -44366.234     -50267.36     
    331000   248.17353     -44171.339     -50230.698    
    332000   246.79879     -44317.687     -50343.481    
    333000   244.99872     -44382.871     -50364.715    
    334000   246.50045     -44368.295     -50386.804    
    335000   246.72959     -44337.659     -50361.763    
    336000   248.20151     -44234.569     -50294.611    
    337000   247.6249      -44316.304     -50362.267    
    338000   245.76772     -44429.602     -50430.221    
    339000   246.15406     -44473.33      -50483.382    
    340000   246.23685     -44370.634     -50382.708    
    341000   243.88047     -44482.34      -50436.881    
    342000   245.41685     -44354.441     -50346.493    
    343000   241.77432     -44357.6       -50260.717    
    344000   247.92923     -44252.945     -50306.339    
    345000   244.89684     -44385.604     -50364.96     
    346000   247.0568      -44340.544     -50372.637    
    347000   244.60798     -44366.963     -50339.266    
    348000   248.46064     -44148.519     -50214.888    
    349000   243.57803     -44394.9       -50342.057    
    350000   248.7271      -44272.516     -50345.391    
    351000   244.58953     -44249.013     -50220.866    
    352000   245.92838     -44281.044     -50285.585    
    353000   246.20837     -44096.335     -50107.713    
    354000   251.76928     -44056.855     -50204.007    
    355000   242.26497     -44306.881     -50221.977    
    356000   245.69793     -44265.776     -50264.692    
    357000   241.23295     -44249.723     -50139.622    
    358000   244.79817     -44186.303     -50163.25     
    359000   248.48008     -44151.963     -50218.807    
    360000   246.8         -44228.664     -50254.487    
    361000   247.02002     -44018.196     -50049.391    
    362000   248.57904     -44155.513     -50224.773    
    363000   240.48566     -44365.239     -50236.892    
    364000   244.88821     -44241.578     -50220.723    
    365000   242.50397     -44200.269     -50121.201    
    366000   248.61832     -44224.102     -50294.321    
    367000   243.17678     -44333.393     -50270.752    
    368000   247.19229     -44184.928     -50220.33     
    369000   247.02497     -44278.144     -50309.46     
    370000   246.2199      -44326.538     -50338.198    
    371000   242.28873     -44132.279     -50047.955    
    372000   245.70364     -44093.171     -50092.225    
    373000   245.24699     -44131.456     -50119.361    
    374000   244.20362     -44257.552     -50219.982    
    375000   246.53686     -44213.776     -50233.174    
    376000   244.43252     -44264.699     -50232.719    
    377000   244.7874      -44158.871     -50135.555    
    378000   246.39254     -44283.449     -50299.323    
    379000   244.93841     -44413.892     -50394.263    
    380000   245.9563      -44298.286     -50303.51     
    381000   246.79988     -44241.017     -50266.837    
    382000   246.46913     -44064.272     -50082.017    
    383000   245.51523     -44250.429     -50244.884    
    384000   248.45793     -44034.459     -50100.762    
    385000   248.49093     -44178.495     -50245.603    
    386000   243.80863     -44294.152     -50246.939    
    387000   249.22636     -44077.661     -50162.726    
    388000   247.33275     -44182.227     -50221.058    
    389000   244.60857     -44311.129     -50283.447    
    390000   249.21924     -44117.332     -50202.223    
    391000   243.29085     -44318.896     -50259.04     
    392000   241.6696      -44303.747     -50204.307    
    393000   245.21579     -44141.682     -50128.825    
    394000   246.88756     -44042.707     -50070.668    
    395000   247.85318     -44143.487     -50195.025    
    396000   246.35204     -44130.313     -50145.198    
    397000   247.4874      -44170.348     -50212.955    
    398000   249.64175     -44216.296     -50311.503    
    399000   244.2491      -44253.634     -50217.175    
    400000   245.13487     -44191.566     -50176.734    
    401000   247.6399      -44269.284     -50315.614    
    402000   251.53133     -43856.16      -49997.503    
    403000   242.65393     -44335.551     -50260.144    
    404000   244.60743     -44297.487     -50269.777    
    405000   243.32027     -44175.611     -50116.474    
    406000   246.99272     -44193.461     -50223.989    
    407000   243.96796     -44189.29      -50145.967    
    408000   245.31533     -44238.339     -50227.913    
    409000   244.8107      -44164.967     -50142.219    
    410000   246.28382     -44328.298     -50341.518    
    411000   248.82146     -44194.633     -50269.811    
    412000   247.68791     -44312.908     -50360.41     
    413000   246.72303     -44216.658     -50240.602    
    414000   246.56664     -44354.823     -50374.949    
    415000   244.8805      -44459.576     -50438.533    
    416000   245.08696     -44404.136     -50388.134    
    417000   242.50867     -44349.28      -50270.327    
    418000   246.11602     -44366.779     -50375.902    
    419000   244.86082     -44211.612     -50190.089    
    420000   241.62174     -44374.161     -50273.553    
    421000   247.09477     -44282.336     -50315.356    
    422000   251.36091     -44171.149     -50308.331    
    423000   243.9456      -44311.864     -50267.995    
    424000   249.51123     -44280.985     -50373.005    
    425000   243.68857     -44441.43      -50391.285    
    426000   247.9452      -44236.642     -50290.426    
    427000   242.74186     -44418.087     -50344.827    
    428000   248.42044     -44306.285     -50371.672    
    429000   244.61855     -44259.53      -50232.091    
    430000   242.53212     -44343.505     -50265.125    
    431000   247.0428      -44362.048     -50393.799    
    432000   246.95742     -44326.034     -50355.701    
    433000   247.04118     -44419.043     -50450.755    
    434000   245.02168     -44375.655     -50358.059    
    435000   246.91691     -44415.546     -50444.223    
    436000   245.34401     -44428.218     -50418.492    
    437000   251.04914     -44283.706     -50413.276    
    438000   247.5706      -44410.85      -50455.488    
    439000   247.98853     -44130.891     -50185.733    
    440000   247.44478     -44311.328     -50352.894    
    441000   246.83745     -44460.245     -50486.983    
    442000   246.54971     -44356.684     -50376.396    
    443000   248.42449     -44241.572     -50307.059    
    444000   245.29023     -44293.762     -50282.723    
    445000   244.20183     -44448.75      -50411.136    
    446000   245.38874     -44272.676     -50264.042    
    447000   244.91097     -44302.903     -50282.604    
    448000   249.87924     -44174.203     -50275.209    
    449000   244.96826     -44374.709     -50355.809    
    450000   249.18437     -44254.775     -50338.815    
    451000   246.25667     -44410.074     -50422.632    
    452000   245.32114     -44356.429     -50346.145    
    453000   246.38827     -44275.997     -50291.767    
    454000   245.53661     -44257.138     -50252.115    
    455000   239.49647     -44391.439     -50238.94     
    456000   245.86452     -44260.097     -50263.08     
    457000   243.16715     -44420.919     -50358.044    
    458000   246.9991      -44234.004     -50264.688    
    459000   244.89156     -44315.361     -50294.588    
    460000   245.0746      -44369.41      -50353.106    
    461000   247.98461     -44178.023     -50232.77     
    462000   248.35297     -44337.428     -50401.169    
    463000   245.84309     -44297.649     -50300.108    
    464000   248.26009     -44119.912     -50181.384    
    465000   245.7649      -44357.726     -50358.276    
    466000   244.55244     -44286.138     -50257.085    
    467000   245.97343     -44369.86      -50375.502    
    468000   243.68824     -44338.415     -50288.262    
    469000   246.36379     -44243.816     -50258.989    
    470000   242.9979      -44418.795     -50351.787    
    471000   245.15682     -44337.522     -50323.226    
    472000   244.10212     -44460.306     -50420.258    
    473000   245.17419     -44293.216     -50279.344    
    474000   250.14133     -44151.516     -50258.92     
    475000   244.18829     -44441.857     -50403.913    
    476000   241.64447     -44491.265     -50391.212    
    477000   246.74084     -44475.94      -50500.319    
    478000   245.93425     -44379.483     -50384.169    
    479000   247.28477     -44302.04      -50339.699    
    480000   247.14317     -44224.844     -50259.046    
    481000   246.46632     -44326.448     -50344.124    
    482000   246.54925     -44417.305     -50437.006    
    483000   244.48211     -44325.563     -50294.793    
    484000   245.8286      -44389.244     -50391.35     
    485000   245.11126     -44311.192     -50295.784    
    486000   247.73366     -44325.866     -50374.485    
    487000   244.97344     -44396.456     -50377.682    
    488000   247.72488     -44346.312     -50394.717    
    489000   244.98062     -44296.952     -50278.354    
    490000   245.44517     -44427.315     -50420.059    
    491000   243.46675     -44390.135     -50334.574    
    492000   246.53002     -44482.42      -50501.651    
    493000   249.59004     -44218.374     -50312.318    
    494000   246.85696     -44383.141     -50410.355    
    495000   247.01939     -44311.577     -50342.757    
    496000   246.41568     -44418.724     -50435.163    
    497000   244.25841     -44465.825     -50429.593    
    498000   251.69403     -44289.869     -50435.184    
    499000   245.6559      -44400.363     -50398.252    
    500000   245.46957     -44327.561     -50320.901    
Loop time of 1854.68 on 56 procs for 500000 steps with 12288 atoms

Performance: 23.292 ns/day, 1.030 hours/ns, 269.589 timesteps/s, 3.313 Matom-step/s
99.8% CPU use with 56 MPI tasks x no OpenMP threads

MPI task timing breakdown:
Section |  min time  |  avg time  |  max time  |%varavg| %total
---------------------------------------------------------------
Pair    | 962.68     | 1000.1     | 1042.9     |  52.1 | 53.92
Bond    | 0.098594   | 0.1313     | 0.17494    |   5.0 |  0.01
Kspace  | 549.53     | 592.42     | 627.53     |  68.3 | 31.94
Neigh   | 114.11     | 114.15     | 114.19     |   0.2 |  6.15
Comm    | 71.732     | 77.18      | 83.949     |  35.7 |  4.16
Output  | 0.01528    | 0.016503   | 0.057183   |   4.3 |  0.00
Modify  | 60.884     | 62.906     | 67.855     |  26.5 |  3.39
Other   |            | 7.816      |            |       |  0.42

Nlocal:        219.429 ave         240 max         195 min
Histogram: 1 1 3 8 9 14 7 6 5 2
Nghost:        6850.62 ave        6941 max        6796 min
Histogram: 5 7 13 7 12 4 2 3 2 1
Neighs:        96062.2 ave      106035 max       84626 min
Histogram: 1 1 3 9 10 15 6 5 2 4

Total # of neighbors = 5379485
Ave neighs/atom = 437.78361
Ave special neighs/atom = 2
Neighbor list builds = 9308
Dangerous builds = 0
unfix fnvt_equil
write_data 4096_equilibrated_${T}.data
write_data 4096_equilibrated_246.data
System init for write_data ...
PPPM initialization ...
  extracting TIP4P info from pair style
  using 12-bit tables for long-range coulomb
  G vector (1/distance) = 0.32815664
  grid = 50 50 50
  stencil order = 5
  estimated absolute RMS force accuracy = 0.0035802102
  estimated relative force accuracy = 1.0781697e-05
  using double precision KISS FFT
  3d grid and FFT values/proc = 11424 2800
Generated 0 of 1 mixed pair_coeff terms from geometric mixing rule
WARNING: Not all mixed pair coeffs generated from mixing. Use write_data with 'pair ij' option to store all pair coeffs. (../write_data.cpp:364)

# 系统剪切变形

fix fdeform all deform 1 xy erate ${gamma} remap v
fix fdeform all deform 1 xy erate 2.5e-5 remap v
fix fnvt all nvt/sllod temp ${T} ${T} 100.0
fix fnvt all nvt/sllod temp 246 ${T} 100.0
fix fnvt all nvt/sllod temp 246 246 100.0

compute tilt all temp/deform

variable L0_x equal lx
variable L0_y equal ly
variable L0_z equal lz

compute p all pressure NULL virial
variable sxy equal -c_p[4] * 1.01325e-4  # convert to GPa


variable strainInc equal 0.01
variable dt equal 1.0e-15
variable gammaSI equal ${gamma}*1e15
variable gammaSI equal 2.5e-5*1e15
variable stepsPerReset equal ceil(${strainInc}/(${gammaSI}*${dt}))
variable stepsPerReset equal ceil(0.01/(${gammaSI}*${dt}))
variable stepsPerReset equal ceil(0.01/(25000000000*${dt}))
variable stepsPerReset equal ceil(0.01/(25000000000*1e-15))
print "Steps per reset: ${stepsPerReset}"
Steps per reset: 400

variable massAll equal mass(all)/6.022e23
variable volCm3 equal vol*1.0e-24
variable density_sys equal v_massAll/v_volCm3
variable tau_pa equal v_sxy * 1e9
variable gamma_s equal ${gamma} * 1e15
variable gamma_s equal 2.5e-5 * 1e15
variable viscosity equal v_tau_pa / v_gamma_s

variable strain equal step*${gammaSI}*${dt}
variable strain equal step*25000000000*${dt}
variable strain equal step*25000000000*1e-15

thermo 1000
thermo_style custom step temp etotal pe pxy v_sxy v_strain v_viscosity
WARNING: New thermo_style command, previous thermo_modify settings will be lost (../output.cpp:912)
thermo_modify flush yes

dump traj all custom 500 traj_${gamma}_${T}.lammpstrj id type xu yu zu vx vy vz # 0.5ps
dump traj all custom 500 traj_2.5e-5_${T}.lammpstrj id type xu yu zu vx vy vz 
dump traj all custom 500 traj_2.5e-5_246.lammpstrj id type xu yu zu vx vy vz 
dump_modify traj sort id
fix stress all ave/time 500 1 500 v_strain v_sxy file stress_${gamma}_${T}.data  # 每0.5ps输出一次应力和应变
fix stress all ave/time 500 1 500 v_strain v_sxy file stress_2.5e-5_${T}.data  
fix stress all ave/time 500 1 500 v_strain v_sxy file stress_2.5e-5_246.data  

# compute peratom all stress/atom NULL
# dump stress gO custom 5000 stress_${gamma}_${T}.lammpstrj id type c_peratom[1] c_peratom[2] c_peratom[3] c_peratom[4] c_peratom[5] c_peratom[6]
# dump_modify stress sort id

variable Ttotal equal 2000000 # 2 ns
variable nloops equal ceil(${Ttotal}/(100000))
variable nloops equal ceil(2000000/(100000))
print "Total loops: ${nloops}"
Total loops: 20

variable nloop loop ${nloops}
variable nloop loop 20
label loop_start
run 100000 # 100ps
PPPM initialization ...
  extracting TIP4P info from pair style
  using 12-bit tables for long-range coulomb
  G vector (1/distance) = 0.32815664
  grid = 50 50 50
  stencil order = 5
  estimated absolute RMS force accuracy = 0.0035802102
  estimated relative force accuracy = 1.0781697e-05
  using double precision KISS FFT
  3d grid and FFT values/proc = 11424 2800
Generated 0 of 1 mixed pair_coeff terms from geometric mixing rule
Per MPI rank memory allocation (min/avg/max) = 9.589 | 9.649 | 9.712 Mbytes
   Step          Temp          TotEng         PotEng          Pxy           v_sxy         v_strain     v_viscosity  
    500000   245.46957     -44327.561     -50320.901      139.5099      -0.016153381    12.5          -0.00064613526
    501000   243.20007     -44319.512     -50257.44      -330.53856      0.033165207    12.525         0.0013266083 
    502000   245.43407     -44354.382     -50346.855     -814.39818      0.084081565    12.55          0.0033632626 
    503000   244.61722     -44413.971     -50386.5       -838.49157      0.081481861    12.575         0.0032592744 
    504000   246.94871     -44150.932     -50180.386     -591.26028      0.058706273    12.6           0.0023482509 
    505000   246.33405     -44250.929     -50265.375     -1126.5917      0.11201566     12.625         0.0044806263 
    506000   240.85323     -44513.268     -50393.896     -925.5697       0.095925559    12.65          0.0038370224 
    507000   248.21505     -44082.904     -50143.277     -820.07069      0.079809727    12.675         0.0031923891 
    508000   244.24537     -44306.217     -50269.667     -1310.4829      0.1279269      12.7           0.005117076  
    509000   245.81783     -44005.602     -50007.444     -1277.7712      0.12712404     12.725         0.0050849617 
    510000   243.19687     -44177.288     -50115.138     -934.55027      0.091395217    12.75          0.0036558087 
    511000   245.1613      -43973.752     -49959.565     -771.83189      0.075718475    12.775         0.003028739  
    512000   250.49996     -43902.891     -50019.052     -737.27955      0.072456825    12.8           0.002898273  
    513000   242.49253     -44053.16      -49973.813     -1028.6325      0.10065115     12.825         0.0040260459 
    514000   247.4123      -43877.769     -49918.542     -851.17876      0.084259662    12.85          0.0033703865 
    515000   247.27026     -43924.577     -49961.882     -882.31538      0.090479309    12.875         0.0036191724 
    516000   248.26994     -43945.718     -50007.431     -856.69763      0.083943657    12.9           0.0033577463 
    517000   245.76665     -43918.105     -49918.698     -1079.2768      0.10563178     12.925         0.0042252714 
    518000   247.02265     -43783.064     -49814.323     -918.89824      0.093077258    12.95          0.0037230903 
    519000   246.79099     -43855.986     -49881.589     -1219.4864      0.11886058     12.975         0.004754423  
    520000   250.7606      -43787.045     -49909.57      -769.1444       0.071458018    13             0.0028583207 
    521000   244.72428     -44018.361     -49993.503     -893.58578      0.09066086     13.025         0.0036264344 
    522000   244.35019     -43844.342     -49810.351     -1041.9415      0.10349953     13.05          0.0041399813 
    523000   242.09944     -43903.563     -49814.618     -921.99283      0.090291092    13.075         0.0036116437 
    524000   247.00492     -43851.562     -49882.388     -774.23567      0.078298141    13.1           0.0031319256 
    525000   244.77065     -43926.734     -49903.008     -908.84326      0.090916583    13.125         0.0036366633 
    526000   248.08651     -43715.299     -49772.534     -887.69459      0.083992157    13.15          0.0033596863 
    527000   241.15763     -44021.956     -49910.016     -952.88725      0.097910188    13.175         0.0039164075 
    528000   242.5184      -43910.804     -49832.088     -753.58631      0.069460975    13.2           0.002778439  
    529000   248.96982     -43760.849     -49839.65      -718.72448      0.072999764    13.225         0.0029199906 
    530000   240.75141     -44162.781     -50040.923     -930.59208      0.094131908    13.25          0.0037652763 
    531000   248.76644     -43850.994     -49924.829     -1011.1537      0.10443047     13.275         0.0041772188 
    532000   243.71355     -44093.388     -50043.853     -738.97107      0.07395138     13.3           0.0029580552 
    533000   246.12526     -44019.718     -50029.067     -845.94934      0.083173885    13.325         0.0033269554 
    534000   247.86854     -43942.241     -49994.154     -758.39559      0.074602184    13.35          0.0029840874 
    535000   244.93136     -43819.863     -49800.062     -1059.822       0.10693115     13.375         0.004277246  
    536000   243.39783     -43972.065     -49914.821     -792.2976       0.079504449    13.4           0.003180178  
    537000   244.46326     -44004.848     -49973.618     -1113.6074      0.11290605     13.425         0.0045162418 
    538000   247.23144     -43967.063     -50003.42      -683.78944      0.068845677    13.45          0.0027538271 
    539000   246.08889     -44037.888     -50046.349     -1038.9648      0.10124581     13.475         0.0040498325 
    540000   243.72201     -43951.933     -49902.605     -815.49159      0.082865506    13.5           0.0033146202 
    541000   245.34371     -43755.519     -49745.786     -918.61243      0.090217126    13.525         0.003608685  
    542000   242.97936     -43952.829     -49885.368     -844.78664      0.080329413    13.55          0.0032131765 
    543000   241.8566      -43982.118     -49887.244     -710.14765      0.067904697    13.575         0.0027161879 
    544000   247.35356     -43832.253     -49871.592     -714.71919      0.067286948    13.6           0.0026914779 
    545000   246.66849     -43848.166     -49870.778     -1188.1651      0.11519513     13.625         0.0046078052 
    546000   244.25558     -43953.22      -49916.919     -879.67082      0.087398947    13.65          0.0034959579 
    547000   243.20791     -43988.513     -49926.633     -722.18339      0.071435094    13.675         0.0028574038 
    548000   243.83833     -43886.65      -49840.162     -688.68029      0.070205084    13.7           0.0028082034 
    549000   245.38064     -43799.616     -49790.784     -986.15487      0.096185461    13.725         0.0038474185 
    550000   245.67498     -43886.917     -49885.272     -1006.5499      0.10114178     13.75          0.004045671  
    551000   246.56626     -43800.547     -49820.664     -700.60163      0.071187623    13.775         0.0028475049 
    552000   246.73348     -43852.78      -49876.979     -541.57711      0.05538545     13.8           0.002215418  
    553000   245.76898     -43857.728     -49858.378     -668.87333      0.064925146    13.825         0.0025970058 
    554000   245.19801     -44000.714     -49987.423     -605.73543      0.057993258    13.85          0.0023197303 
    555000   244.58601     -43877.708     -49849.474     -795.25444      0.077935818    13.875         0.0031174327 
    556000   242.45523     -44076.542     -49996.284     -883.37759      0.090124077    13.9           0.0036049631 
    557000   243.71605     -44094.195     -50044.721     -779.79069      0.078610613    13.925         0.0031444245 
    558000   247.07048     -43914.249     -49946.676     -1017.1137      0.1000036      13.95          0.0040001439 
    559000   243.976       -43997.797     -49954.669     -914.93803      0.089053588    13.975         0.0035621435 
    560000   246.01004     -44023.638     -50030.174     -883.39827      0.091515967    14             0.0036606387 
    561000   240.14538     -43988.642     -49851.987     -850.89761      0.08416624     14.025         0.0033666496 
    562000   244.53852     -43768.261     -49738.868     -985.69558      0.096989183    14.05          0.0038795673 
    563000   249.67779     -43882.309     -49978.395     -670.77773      0.067202786    14.075         0.0026881114 
    564000   243.71315     -43928.656     -49879.111     -1097.4634      0.10976926     14.1           0.0043907704 
    565000   250.34969     -43760.119     -49872.611     -869.60682      0.087286339    14.125         0.0034914536 
    566000   245.41484     -43787.349     -49779.352     -535.41039      0.053647448    14.15          0.0021458979 
    567000   243.89688     -43971.098     -49926.039     -702.53287      0.072930265    14.175         0.0029172106 
    568000   245.78092     -43962.026     -49962.968     -600.13965      0.058197099    14.2           0.0023278839 
    569000   244.78209     -43987.263     -49963.817     -834.81377      0.087970085    14.225         0.0035188034 
    570000   246.06913     -44050.734     -50058.713     -582.54183      0.056687323    14.25          0.0022674929 
    571000   246.42915     -43963.367     -49980.136     -717.79847      0.067415784    14.275         0.0026966314 
    572000   249.87419     -44008.154     -50109.036     -538.24838      0.054128411    14.3           0.0021651364 
    573000   243.38706     -44116.621     -50059.114     -722.12401      0.071100822    14.325         0.0028440329 
    574000   245.63094     -43925.731     -49923.011     -715.32255      0.069156456    14.35          0.0027662582 
    575000   245.42132     -44049.192     -50041.354     -725.94791      0.072834855    14.375         0.0029133942 
    576000   246.70402     -44030.889     -50054.369     -1066.3635      0.10466418     14.4           0.0041865671 
    577000   244.86484     -44031.991     -50010.566     -905.28756      0.090090248    14.425         0.0036036099 
    578000   244.59445     -43915.255     -49887.228     -733.6153       0.072627903    14.45          0.0029051161 
    579000   244.01687     -43887.09      -49844.961     -474.61799      0.047145635    14.475         0.0018858254 
    580000   244.33537     -43978.148     -49943.795     -1043.4024      0.10188118     14.5           0.0040752471 
    581000   247.66553     -43798.997     -49845.953     -859.9157       0.088117881    14.525         0.0035247152 
    582000   246.71761     -43991.564     -50015.376     -617.26689      0.058249118    14.55          0.0023299647 
    583000   243.04428     -43947.965     -49882.09      -616.62748      0.060019036    14.575         0.0024007615 
    584000   244.39783     -43940.639     -49907.811     -963.23306      0.10010515     14.6           0.0040042059 
    585000   248.49874     -43814.492     -49881.792     -942.60664      0.092719137    14.625         0.0037087655 
    586000   246.57232     -44091.421     -50111.685     -712.81007      0.071216795    14.65          0.0028486718 
    587000   244.47225     -43931.011     -49900         -1134.9932      0.11112431     14.675         0.0044449726 
    588000   240.2252      -44128.202     -49993.496     -658.59951      0.062452097    14.7           0.0024980839 
    589000   249.57632     -43917.636     -50011.245     -970.64028      0.095439105    14.725         0.0038175642 
    590000   242.43138     -44117.691     -50036.85      -870.75656      0.086277001    14.75          0.0034510801 
    591000   246.01886     -43925.005     -49931.756     -717.18945      0.069989776    14.775         0.002799591  
    592000   243.85883     -44126.447     -50080.459     -1148.0882      0.11469009     14.8           0.0045876038 
    593000   247.54301     -43937.805     -49981.77      -1264.7772      0.12587637     14.825         0.005035055  
    594000   244.36842     -43956.418     -49922.872     -987.14685      0.096557189    14.85          0.0038622876 
    595000   243.04355     -44051.856     -49985.963     -693.40984      0.070016189    14.875         0.0028006476 
    596000   245.3234      -43886.996     -49876.767     -893.34149      0.085039453    14.9           0.0034015781 
    597000   246.2886      -43988.885     -50002.222     -787.85479      0.083338115    14.925         0.0033335246 
    598000   246.34817     -43860.187     -49874.979     -684.63436      0.067742985    14.95          0.0027097194 
    599000   247.87082     -43844.61      -49896.578     -751.19512      0.076524663    14.975         0.0030609865 
    600000   247.09446     -43878.684     -49911.697     -594.85237      0.056788225    15             0.002271529  
Loop time of 425.26 on 56 procs for 100000 steps with 12288 atoms

Performance: 20.317 ns/day, 1.181 hours/ns, 235.150 timesteps/s, 2.890 Matom-step/s
99.8% CPU use with 56 MPI tasks x no OpenMP threads

MPI task timing breakdown:
Section |  min time  |  avg time  |  max time  |%varavg| %total
---------------------------------------------------------------
Pair    | 186.99     | 196.67     | 203.76     |  29.8 | 46.25
Bond    | 0.019283   | 0.027116   | 0.036446   |   2.7 |  0.01
Kspace  | 111.98     | 118.79     | 129.12     |  38.4 | 27.93
Neigh   | 24.896     | 24.906     | 24.916     |   0.1 |  5.86
Comm    | 14.878     | 15.893     | 17.367     |  13.9 |  3.74
Output  | 0.22435    | 0.39709    | 0.56346    |  16.0 |  0.09
Modify  | 51.911     | 56.162     | 66.1       |  44.9 | 13.21
Other   |            | 12.41      |            |       |  2.92

Nlocal:        219.429 ave         240 max         197 min
Histogram: 1 2 1 14 13 5 10 6 1 3
Nghost:         7280.7 ave        7367 max        7198 min
Histogram: 2 3 5 9 12 8 7 5 0 5
Neighs:        96054.9 ave      107372 max       84240 min
Histogram: 1 2 2 7 18 9 8 6 1 2

Total # of neighbors = 5379072
Ave neighs/atom = 437.75
Ave special neighs/atom = 2
Neighbor list builds = 2116
Dangerous builds = 0
kspace_style pppm/tip4p 1.0e-5
next nloop
jump SELF loop_start
run 100000 # 100ps
PPPM initialization ...
  extracting TIP4P info from pair style
  using 12-bit tables for long-range coulomb
  G vector (1/distance) = 0.32815664
  grid = 50 75 50
  stencil order = 5
  estimated absolute RMS force accuracy = 0.0035802102
  estimated relative force accuracy = 1.0781697e-05
  using double precision KISS FFT
  3d grid and FFT values/proc = 15776 4000
Generated 0 of 1 mixed pair_coeff terms from geometric mixing rule
Per MPI rank memory allocation (min/avg/max) = 11.21 | 11.34 | 11.44 Mbytes
   Step          Temp          TotEng         PotEng          Pxy           v_sxy         v_strain     v_viscosity  
    600000   247.10882     -43878.457     -49911.82      -540.81489      0.051229018    15             0.0020491607 
    601000   243.41126     -43837.314     -49780.399     -757.48665      0.073429201    15.025         0.002937168  
    602000   245.96669     -43984.475     -49989.952     -608.02065      0.066683135    15.05          0.0026673254 
    603000   245.90114     -44091.994     -50095.871     -904.47657      0.090002584    15.075         0.0036001034 
    604000   244.05587     -44022.831     -49981.654     -714.1552       0.071707702    15.1           0.0028683081 
    605000   248.60003     -43945.879     -50015.652     -617.07202      0.05762041     15.125         0.0023048164 
    606000   250.38751     -43658.375     -49771.79      -868.45249      0.084984584    15.15          0.0033993834 
    607000   242.30928     -43877.262     -49793.441     -985.0605       0.098367809    15.175         0.0039347124 
    608000   242.12487     -44015.392     -49927.068     -1004.8368      0.094794931    15.2           0.0037917973 
    609000   247.65036     -43830.059     -49876.644     -684.08868      0.069127396    15.225         0.0027650958 
    610000   245.74733     -43697.279     -49697.4       -856.96071      0.078510481    15.25          0.0031404193 
    611000   243.76238     -43881.643     -49833.3       -892.36003      0.086763919    15.275         0.0034705568 
    612000   245.54462     -43772.71      -49767.882     -555.16273      0.056232016    15.3           0.0022492807 
    613000   245.23142     -43863.965     -49851.49      -719.21495      0.073897645    15.325         0.0029559058 
    614000   248.29023     -43740.162     -49802.371     -1051.2789      0.10085201     15.35          0.0040340805 
    615000   245.25753     -43877.278     -49865.441     -1129.5192      0.11052158     15.375         0.0044208632 
    616000   244.92994     -43837.153     -49817.318     -883.84804      0.087479713    15.4           0.0034991885 
    617000   244.52161     -43924.362     -49894.557     -668.15032      0.064606715    15.425         0.0025842686 
    618000   244.23198     -44004.112     -49967.235     -761.29422      0.072185169    15.45          0.0028874068 
    619000   249.62484     -43759.986     -49854.78      -1044.2724      0.1066721      15.475         0.0042668839 
    620000   243.10623     -43900.764     -49836.401     -662.88066      0.065611427    15.5           0.0026244571 
    621000   246.50582     -43837.974     -49856.615     -1353.1832      0.13087722     15.525         0.0052350888 
    622000   247.75579     -43955.866     -50005.025     -622.59714      0.0604839      15.55          0.002419356  
    623000   243.59335     -44065.184     -50012.714     -1038.8481      0.10536088     15.575         0.0042144354 
    624000   246.91162     -43865.511     -49894.06      -859.7306       0.086797375    15.6           0.003471895  
    625000   248.56562     -43760.483     -49829.415     -922.68251      0.090316938    15.625         0.0036126775 
    626000   245.15472     -44103.213     -50088.865     -884.14977      0.086729821    15.65          0.0034691929 
    627000   245.81498     -43861.541     -49863.315     -926.54095      0.086254996    15.675         0.0034501998 
    628000   243.96288     -43957.823     -49914.376     -721.24196      0.071484824    15.7           0.002859393  
    629000   247.36359     -43835.052     -49874.635     -845.46915      0.080477506    15.725         0.0032191003 
    630000   244.34285     -43980.48      -49946.31      -664.5942       0.064305985    15.75          0.0025722394 
    631000   246.77734     -43919.354     -49944.624     -894.58243      0.087754094    15.775         0.0035101638 
    632000   249.64359     -43773.308     -49868.56      -932.40091      0.093221376    15.8           0.0037288551 
    633000   245.95017     -43832.308     -49837.382     -799.14943      0.078033444    15.825         0.0031213377 
    634000   247.43393     -43933.7       -49975.001     -1093.4687      0.10718839     15.85          0.0042875357 
    635000   246.9568      -43935.82      -49965.471     -813.28331      0.079946774    15.875         0.0031978709 
    636000   241.93615     -44025.485     -49932.554     -1064.1381      0.10428018     15.9           0.0041712072 
    637000   246.48919     -43846.691     -49864.926     -764.66288      0.072119879    15.925         0.0028847952 
    638000   247.45781     -43829.231     -49871.115     -812.3557       0.078895508    15.95          0.0031558203 
    639000   242.65019     -43946.835     -49871.337     -821.83221      0.080806833    15.975         0.0032322733 
    640000   243.24897     -43861.408     -49800.529     -793.21948      0.077683866    16             0.0031073546 
    641000   245.03127     -43879.514     -49862.152     -1110.4167      0.10835686     16.025         0.0043342742 
    642000   243.58262     -43895.82      -49843.088     -803.39775      0.078273036    16.05          0.0031309214 
    643000   244.2831      -43952.893     -49917.264     -958.46854      0.096971111    16.075         0.0038788444 
    644000   249.08957     -43823.32      -49905.045     -1078.3659      0.10804496     16.1           0.0043217984 
    645000   247.67795     -43994.794     -50042.054     -428.77494      0.042215387    16.125         0.0016886155 
    646000   245.91602     -43914.017     -49918.257     -1046.7849      0.10446179     16.15          0.0041784715 
    647000   245.43311     -43944.06      -49936.51      -973.53966      0.096707655    16.175         0.0038683062 
    648000   245.40651     -43955.358     -49947.158     -768.82506      0.07498588     16.2           0.0029994352 
    649000   246.75382     -43872.004     -49896.699     -929.90809      0.092077796    16.225         0.0036831118 
    650000   248.72816     -43732.715     -49805.616     -1108.07        0.10939147     16.25          0.0043756588 
    651000   243.9251      -43893.678     -49849.308     -885.94572      0.088673809    16.275         0.0035469524 
    652000   248.68007     -43817.22      -49888.947     -1013.272       0.099339603    16.3           0.0039735841 
    653000   248.98402     -43680.367     -49759.515     -892.95766      0.086932796    16.325         0.0034773118 
    654000   244.37496     -43846.041     -49812.655     -770.18833      0.077275615    16.35          0.0030910246 
    655000   248.51452     -43729.508     -49797.192     -941.71056      0.095920438    16.375         0.0038368175 
    656000   244.24969     -43886.907     -49850.462     -563.33698      0.054238309    16.4           0.0021695324 
    657000   249.08906     -43826.744     -49908.457     -746.90787      0.07690936     16.425         0.0030763744 
    658000   248.20459     -43831.834     -49891.951     -607.93836      0.057339751    16.45          0.00229359   
    659000   246.39347     -43853.977     -49869.875     -505.93874      0.050278778    16.475         0.0020111511 
    660000   249.40021     -43869.811     -49959.121     -863.33591      0.08452528     16.5           0.0033810112 
    661000   244.73244     -43967.088     -49942.43      -814.30411      0.083762013    16.525         0.0033504805 
    662000   247.25663     -43977.233     -50014.205     -563.95374      0.053927303    16.55          0.0021570921 
    663000   243.08922     -44030.773     -49965.994     -973.9182       0.095765598    16.575         0.0038306239 
    664000   249.6994      -43755.387     -49852.002     -895.12857      0.091432915    16.6           0.0036573166 
    665000   247.58217     -43765.016     -49809.936     -720.90771      0.074345585    16.625         0.0029738234 
    666000   248.37402     -43830.116     -49894.37      -544.88897      0.05562775     16.65          0.00222511   
    667000   245.24339     -43776.211     -49764.029     -1022.4829      0.098202438    16.675         0.0039280975 
    668000   245.40374     -43880.405     -49872.137     -805.0981       0.08046978     16.7           0.0032187912 
    669000   249.39559     -43755.405     -49844.601     -1019.3045      0.10310234     16.725         0.0041240938 
    670000   244.73552     -43943.83      -49919.248     -928.91394      0.091429953    16.75          0.0036571981 
    671000   245.14064     -43919.804     -49905.113     -1145.8022      0.11068152     16.775         0.0044272608 
    672000   247.11103     -43695.205     -49728.622     -764.58535      0.077346354    16.8           0.0030938541 
    673000   246.40642     -44004.917     -50021.131     -765.95412      0.076121397    16.825         0.0030448559 
    674000   246.57203     -43772.156     -49792.413     -392.0295       0.042201492    16.85          0.0016880597 
    675000   246.09457     -43799.155     -49807.754     -777.83607      0.078562848    16.875         0.0031425139 
    676000   250.71405     -43694.92      -49816.308     -501.65442      0.049818255    16.9           0.0019927302 
    677000   244.20134     -43983.571     -49945.946     -955.68422      0.092465412    16.925         0.0036986165 
    678000   244.12556     -43870.554     -49831.079     -837.62706      0.084090227    16.95          0.0033636091 
    679000   246.61153     -43929.312     -49950.534     -817.54306      0.078024977    16.975         0.0031209991 
    680000   245.78404     -43863.982     -49865         -743.83627      0.073616627    17             0.0029446651 
    681000   244.25868     -43879.385     -49843.16      -1277.9405      0.12612195     17.025         0.0050448779 
    682000   250.36867     -43846.483     -49959.438     -700.20336      0.071992069    17.05          0.0028796828 
    683000   246.32185     -43854.253     -49868.402     -1000.0753      0.098716966    17.075         0.0039486786 
    684000   244.46237     -43859.696     -49828.444     -784.7233       0.071727259    17.1           0.0028690904 
    685000   250.01244     -43667.813     -49772.07      -927.00645      0.091326998    17.125         0.0036530799 
    686000   248.12042     -43848.762     -49906.824     -829.65436      0.080981167    17.15          0.0032392467 
    687000   245.55234     -43774.099     -49769.459     -952.25234      0.094596869    17.175         0.0037838748 
    688000   249.48397     -43827.418     -49918.772     -915.48749      0.092073634    17.2           0.0036829454 
    689000   245.24393     -44061.661     -50049.491     -819.78552      0.079961884    17.225         0.0031984754 
    690000   251.65385     -43682.405     -49826.739     -684.7781       0.069742043    17.25          0.0027896817 
    691000   245.29845     -43873.27      -49862.431     -647.18755      0.061001294    17.275         0.0024400518 
    692000   245.26922     -43916.103     -49904.551     -1040.806       0.10177137     17.3           0.004070855  
    693000   247.22166     -43956.471     -49992.589     -628.14537      0.062159336    17.325         0.0024863734 
    694000   245.89335     -43874.112     -49877.799     -732.0791       0.069311086    17.35          0.0027724434 
    695000   247.57715     -43857.186     -49901.984     -650.05719      0.062298396    17.375         0.0024919359 
    696000   245.18172     -43833.515     -49819.826     -665.04292      0.067380305    17.4           0.0026952122 
    697000   245.98338     -43798.981     -49804.866     -890.35852      0.087976575    17.425         0.003519063  
    698000   246.4834      -43953.044     -49971.137     -742.13933      0.076882065    17.45          0.0030752826 
    699000   245.89461     -43793.924     -49797.641     -492.20472      0.047385165    17.475         0.0018954066 
    700000   247.4123      -43751.387     -49792.159     -850.28437      0.084079838    17.5           0.0033631935 
Loop time of 495.36 on 56 procs for 100000 steps with 12288 atoms

Performance: 17.442 ns/day, 1.376 hours/ns, 201.873 timesteps/s, 2.481 Matom-step/s
99.8% CPU use with 56 MPI tasks x no OpenMP threads

MPI task timing breakdown:
Section |  min time  |  avg time  |  max time  |%varavg| %total
---------------------------------------------------------------
Pair    | 189.13     | 199.26     | 208.09     |  29.2 | 40.23
Bond    | 0.021547   | 0.031211   | 0.041347   |   2.7 |  0.01
Kspace  | 148.9      | 158.63     | 169.58     |  33.3 | 32.02
Neigh   | 24.864     | 24.874     | 24.884     |   0.1 |  5.02
Comm    | 15.914     | 17.619     | 19.418     |  20.1 |  3.56
Output  | 0.22242    | 0.39385    | 0.55832    |  15.8 |  0.08
Modify  | 73.536     | 79.667     | 91.965     |  51.9 | 16.08
Other   |            | 14.88      |            |       |  3.00

Nlocal:        219.429 ave         243 max         199 min
Histogram: 3 4 6 7 9 9 12 4 1 1
Nghost:        6834.75 ave        6882 max        6762 min
Histogram: 1 1 3 6 2 12 11 9 8 3
Neighs:        96061.6 ave      107812 max       87012 min
Histogram: 6 2 7 10 7 10 9 3 1 1

Total # of neighbors = 5379447
Ave neighs/atom = 437.78052
Ave special neighs/atom = 2
Neighbor list builds = 2122
Dangerous builds = 0
kspace_style pppm/tip4p 1.0e-5
next nloop
jump SELF loop_start
run 100000 # 100ps
PPPM initialization ...
  extracting TIP4P info from pair style
  using 12-bit tables for long-range coulomb
  G vector (1/distance) = 0.32815664
  grid = 50 50 50
  stencil order = 5
  estimated absolute RMS force accuracy = 0.0035802102
  estimated relative force accuracy = 1.0781697e-05
  using double precision KISS FFT
  3d grid and FFT values/proc = 11424 2800
Generated 0 of 1 mixed pair_coeff terms from geometric mixing rule
Per MPI rank memory allocation (min/avg/max) = 10.92 | 11.03 | 11.12 Mbytes
   Step          Temp          TotEng         PotEng          Pxy           v_sxy         v_strain     v_viscosity  
    700000   247.39934     -43751.658     -49792.115     -805.55248      0.079456475    17.5           0.003178259  
    701000   245.04813     -43910.576     -49893.625     -950.83627      0.09544597     17.525         0.0038178388 
    702000   249.33226     -43729.637     -49817.287     -832.59008      0.088167561    17.55          0.0035267025 
    703000   244.82057     -43880.263     -49857.756     -1152.6811      0.11567173     17.575         0.0046268694 
    704000   248.40339     -43768.55      -49833.521     -729.33802      0.072790238    17.6           0.0029116095 
    705000   243.22789     -43993.499     -49932.106     -747.54257      0.073070129    17.625         0.0029228052 
    706000   244.79502     -43785.874     -49762.744     -953.40901      0.091023107    17.65          0.0036409243 
    707000   244.45056     -43911.889     -49880.348     -1038.5924      0.10373272     17.675         0.0041493086 
    708000   245.54645     -44018.157     -50013.373     -577.12298      0.057033389    17.7           0.0022813356 
    709000   240.61894     -44047.986     -49922.893     -947.47718      0.096483041    17.725         0.0038593217 
    710000   241.9295      -43965.823     -49872.729     -715.65718      0.071347434    17.75          0.0028538974 
    711000   246.14386     -43936.973     -49946.776     -891.97453      0.08969098     17.775         0.0035876392 
    712000   247.70724     -43998.939     -50046.913     -902.48023      0.088299259    17.8           0.0035319704 
    713000   246.47681     -43862.902     -49880.834     -766.37834      0.079184279    17.825         0.0031673712 
    714000   245.01513     -43774.282     -49756.526     -953.66852      0.09084598     17.85          0.0036338392 
    715000   245.02274     -43853.208     -49835.638     -662.19424      0.067944636    17.875         0.0027177854 
    716000   245.70317     -43857.261     -49856.304     -772.3107       0.079778957    17.9           0.0031911583 
    717000   244.17175     -43964.474     -49926.127     -728.93742      0.074639462    17.925         0.0029855785 
    718000   245.69487     -43878.49      -49877.331     -474.52227      0.047148916    17.95          0.0018859566 
    719000   245.95616     -43686.946     -49692.167     -855.20778      0.082269298    17.975         0.0032907719 
    720000   243.73032     -43910.247     -49861.122     -945.6533       0.092363348    18             0.0036945339 
    721000   245.44354     -43587.745     -49580.449     -945.20616      0.094688387    18.025         0.0037875355 
    722000   245.80608     -43643.558     -49645.113     -825.99374      0.081725297    18.05          0.0032690119 
    723000   247.72741     -43729.96      -49778.427     -958.47069      0.092330655    18.075         0.0036932262 
    724000   244.52363     -43858.159     -49828.403     -1040.2539      0.10680694     18.1           0.0042722775 
    725000   248.24755     -43656.067     -49717.233     -659.92832      0.069048457    18.125         0.0027619383 
    726000   244.76128     -43815.208     -49791.254     -886.86696      0.086777398    18.15          0.0034710959 
    727000   246.08934     -43727.752     -49736.224     -955.6656       0.094706965    18.175         0.0037882786 
    728000   242.88917     -43828.881     -49759.218     -678.85975      0.065150945    18.2           0.0026060378 
    729000   247.79201     -43930.376     -49980.419     -557.53301      0.052446956    18.225         0.0020978782 
    730000   246.96962     -43741.494     -49771.459     -755.04811      0.080362568    18.25          0.0032145027 
    731000   250.30152     -43618.252     -49729.568     -643.29942      0.064018979    18.275         0.0025607592 
    732000   242.0718      -43866.277     -49776.657     -480.87127      0.048367205    18.3           0.0019346882 
    733000   245.63062     -43779.421     -49776.693     -548.53789      0.051694926    18.325         0.002067797  
    734000   246.20607     -43884.113     -49895.435     -678.8612       0.066163045    18.35          0.0026465218 
    735000   246.77743     -43892.264     -49917.536     -787.41439      0.074654483    18.375         0.0029861793 
    736000   245.52769     -43876.52      -49871.279     -844.02323      0.085685855    18.4           0.0034274342 
    737000   249.88906     -43764.046     -49865.291     -1202.5322      0.12167031     18.425         0.0048668125 
    738000   242.36821     -43956.948     -49874.565     -593.3472       0.06191225     18.45          0.00247649   
    739000   245.21825     -43815.012     -49802.216     -692.5706       0.069445379    18.475         0.0027778152 
    740000   248.35481     -43748.955     -49812.74      -707.22213      0.068971448    18.5           0.0027588579 
    741000   248.00615     -43888.292     -49943.564     -647.67798      0.063181145    18.525         0.0025272458 
    742000   248.60402     -43665.712     -49735.582     -890.84003      0.086580143    18.55          0.0034632057 
    743000   243.85984     -43893.668     -49847.704     -1156.1983      0.11429822     18.575         0.0045719288 
    744000   251.95829     -43730.652     -49882.419     -689.60488      0.068116708    18.6           0.0027246683 
    745000   245.26889     -44028.658     -50017.098     -683.94976      0.067446344    18.625         0.0026978538 
    746000   243.79856     -44002.744     -49955.284     -900.81818      0.087747987    18.65          0.0035099195 
    747000   245.53642     -43832.453     -49827.425     -592.83171      0.057958744    18.675         0.0023183497 
    748000   249.45729     -43902.536     -49993.239     -860.95579      0.085232619    18.7           0.0034093048 
    749000   246.58583     -43816.751     -49837.345     -776.17563      0.074621035    18.725         0.0029848414 
    750000   244.9161      -43795.072     -49774.898     -940.04481      0.090833426    18.75          0.003633337  
    751000   248.8417      -43664.777     -49740.45      -443.42081      0.041482711    18.775         0.0016593084 
    752000   247.12588     -43919.682     -49953.462     -822.66876      0.082378514    18.8           0.0032951406 
    753000   247.22947     -43722.911     -49759.22      -952.70077      0.091597887    18.825         0.0036639155 
    754000   246.06436     -44007.293     -50015.155     -772.69434      0.073794766    18.85          0.0029517906 
    755000   245.93584     -44046.189     -50050.913     -746.34261      0.070830625    18.875         0.002833225  
    756000   249.3313      -43872.796     -49960.423     -970.20474      0.10033553     18.9           0.0040134211 
    757000   249.14774     -43729.571     -49812.716     -1152.0234      0.11293373     18.925         0.0045173491 
    758000   246.26298     -43815.816     -49828.528     -1000.6127      0.097885286    18.95          0.0039154114 
    759000   245.97971     -43787.838     -49793.633     -952.22921      0.093231337    18.975         0.0037292535 
    760000   251.88822     -43775.973     -49926.029     -842.18243      0.081675538    19             0.0032670215 
    761000   247.73171     -43806.354     -49854.926     -979.07273      0.095296264    19.025         0.0038118506 
    762000   245.01942     -43993.592     -49975.941     -1076.0943      0.10964697     19.05          0.0043858787 
    763000   250.48839     -43511.376     -49627.254     -614.24459      0.059107174    19.075         0.002364287  
    764000   243.58251     -44005.944     -49953.209     -720.36323      0.073308404    19.1           0.0029323362 
    765000   250.64526     -43650.049     -49769.757     -748.87235      0.071072253    19.125         0.0028428901 
    766000   244.2728      -43879.999     -49844.119     -635.48404      0.063049227    19.15          0.0025219691 
    767000   245.94436     -43924.356     -49929.288     -687.55656      0.069641172    19.175         0.0027856469 
    768000   245.25695     -43889.37      -49877.519     -794.10713      0.080214573    19.2           0.0032085829 
    769000   248.15942     -43725.074     -49784.089     -863.65283      0.082091941    19.225         0.0032836776 
    770000   247.63954     -43766.906     -49813.227     -1083.4437      0.10446182     19.25          0.0041784729 
    771000   244.55799     -43957.607     -49928.689     -958.04007      0.095034507    19.275         0.0038013803 
    772000   245.46436     -43928.168     -49921.381     -632.94096      0.059774158    19.3           0.0023909663 
    773000   244.59463     -43893.356     -49865.333     -734.9113       0.073244296    19.325         0.0029297718 
    774000   244.74727     -44004.821     -49980.525     -947.31694      0.092355349    19.35          0.003694214  
    775000   248.36828     -43765.886     -49830         -623.74837      0.060063257    19.375         0.0024025303 
    776000   248.4972      -43871.791     -49939.053     -661.35537      0.059786176    19.4           0.002391447  
    777000   245.58358     -43949.352     -49945.475     -964.75034      0.096924798    19.425         0.0038769919 
    778000   246.6587      -43788.842     -49811.215     -584.54722      0.054904411    19.45          0.0021961764 
    779000   249.45823     -43823.116     -49913.842     -1021.1981      0.10183558     19.475         0.004073423  
    780000   245.71782     -43921.834     -49921.235     -938.50812      0.094070652    19.5           0.0037628261 
    781000   248.16988     -43795.649     -49854.919     -1012.8135      0.10343437     19.525         0.0041373746 
    782000   244.82826     -43992.313     -49969.995     -790.97107      0.074491408    19.55          0.0029796563 
    783000   249.09616     -43836.942     -49918.828     -728.89502      0.071628468    19.575         0.0028651387 
    784000   246.79647     -43834.701     -49860.438     -1175.2541      0.11492173     19.6           0.0045968692 
    785000   247.74108     -43912.107     -49960.908     -769.58145      0.074584449    19.625         0.002983378  
    786000   245.8001      -43791.32      -49792.73      -750.28928      0.07088175     19.65          0.00283527   
    787000   247.40571     -43892.613     -49933.225     -695.18849      0.067787161    19.675         0.0027114865 
    788000   249.36232     -43787.714     -49876.098     -1067.855       0.10359226     19.7           0.0041436902 
    789000   248.83864     -43771.423     -49847.021     -891.73462      0.089216843    19.725         0.0035686737 
    790000   246.13149     -43957.391     -49966.892     -865.33848      0.084976617    19.75          0.0033990647 
    791000   245.82606     -44014.719     -50016.763     -767.43733      0.074469714    19.775         0.0029787886 
    792000   247.31947     -43827.399     -49865.905     -866.03413      0.086081396    19.8           0.0034432559 
    793000   244.86285     -43890.902     -49869.428     -1120.2853      0.11363103     19.825         0.0045452411 
    794000   244.91558     -43750.497     -49730.31      -587.29165      0.059249562    19.85          0.0023699825 
    795000   250.1619      -43727.575     -49835.482     -722.48191      0.070945335    19.875         0.0028378134 
    796000   244.79533     -43922.325     -49899.203     -792.83877      0.081706824    19.9           0.003268273  
    797000   242.83145     -43953.051     -49881.979     -745.83084      0.070269795    19.925         0.0028107918 
    798000   247.19238     -43690.513     -49725.917     -495.89678      0.047443876    19.95          0.0018977551 
    799000   245.92016     -43839.459     -49843.8       -697.71689      0.070273905    19.975         0.0028109562 
    800000   250.27218     -43790.441     -49901.041     -510.99839      0.049436543    20             0.0019774617 
Loop time of 424.945 on 56 procs for 100000 steps with 12288 atoms

Performance: 20.332 ns/day, 1.180 hours/ns, 235.325 timesteps/s, 2.892 Matom-step/s
99.8% CPU use with 56 MPI tasks x no OpenMP threads

MPI task timing breakdown:
Section |  min time  |  avg time  |  max time  |%varavg| %total
---------------------------------------------------------------
Pair    | 187.12     | 195.96     | 205.96     |  34.2 | 46.11
Bond    | 0.018289   | 0.026268   | 0.038971   |   3.0 |  0.01
Kspace  | 109.51     | 119.21     | 128.16     |  44.0 | 28.05
Neigh   | 24.772     | 24.781     | 24.791     |   0.1 |  5.83
Comm    | 14.846     | 15.852     | 17.603     |  14.7 |  3.73
Output  | 0.22254    | 0.39485    | 0.56       |  15.9 |  0.09
Modify  | 52.042     | 56.246     | 66.248     |  45.5 | 13.24
Other   |            | 12.48      |            |       |  2.94

Nlocal:        219.429 ave         237 max         201 min
Histogram: 1 4 2 7 10 15 9 4 2 2
Nghost:        7281.46 ave        7344 max        7220 min
Histogram: 2 2 6 9 9 9 12 2 4 1
Neighs:        96035.6 ave      105051 max       87362 min
Histogram: 1 3 5 5 18 11 5 5 1 2

Total # of neighbors = 5377991
Ave neighs/atom = 437.66203
Ave special neighs/atom = 2
Neighbor list builds = 2111
Dangerous builds = 0
kspace_style pppm/tip4p 1.0e-5
next nloop
jump SELF loop_start
run 100000 # 100ps
PPPM initialization ...
  extracting TIP4P info from pair style
  using 12-bit tables for long-range coulomb
  G vector (1/distance) = 0.32815664
  grid = 50 75 50
  stencil order = 5
  estimated absolute RMS force accuracy = 0.0035802102
  estimated relative force accuracy = 1.0781697e-05
  using double precision KISS FFT
  3d grid and FFT values/proc = 15776 4000
Generated 0 of 1 mixed pair_coeff terms from geometric mixing rule
Per MPI rank memory allocation (min/avg/max) = 11.21 | 11.34 | 11.44 Mbytes
   Step          Temp          TotEng         PotEng          Pxy           v_sxy         v_strain     v_viscosity  
    800000   250.29914     -43789.814     -49901.072     -460.38183      0.044180895    20             0.0017672358 
    801000   252.40322     -43565.164     -49727.794     -1034.0399      0.10342754     20.025         0.0041371018 
    802000   242.37852     -43824.319     -49742.188     -759.59157      0.075590873    20.05          0.0030236349 
    803000   245.76302     -43777.869     -49778.374     -965.348        0.097593174    20.075         0.003903727  
    804000   245.06967     -43898.817     -49882.393     -1065.5337      0.10384007     20.1           0.0041536026 
    805000   246.52113     -43788.152     -49807.166     -1140.9582      0.11117112     20.125         0.0044468449 
    806000   248.03719     -43747.671     -49803.701     -780.94358      0.077293617    20.15          0.0030917447 
    807000   249.70364     -43758.001     -49854.719     -729.20541      0.069127241    20.175         0.0027650896 
[...]
   2362000   251.89794     -43748.138     -49898.431     -789.72003      0.079185297    59.05          0.0031674119 
   2363000   247.0855      -43754.912     -49787.706     -598.15491      0.062905136    59.075         0.0025162055 
   2364000   249.75323     -43852.548     -49950.477     -963.73307      0.093145635    59.1           0.0037258254 
   2365000   249.76647     -43756.55      -49854.802     -944.88918      0.09540604     59.125         0.0038162416 
   2366000   248.40019     -43670.438     -49735.331     -899.45533      0.090697136    59.15          0.0036278855 
   2367000   248.36507     -43651.093     -49715.128     -456.70793      0.045144571    59.175         0.0018057828 
   2368000   251.44285     -43608.807     -49747.989     -833.10044      0.080417858    59.2           0.0032167143 
   2369000   247.98163     -43801.299     -49855.973     -515.60833      0.047611004    59.225         0.0019044401 
   2370000   245.57648     -43835.933     -49831.883     -677.70901      0.07039149     59.25          0.0028156596 
   2371000   248.78453     -43742.945     -49817.222     -404.67235      0.039251701    59.275         0.001570068  
   2372000   248.64891     -43822.593     -49893.558     -941.84492      0.093276459    59.3           0.0037310584 
   2373000   250.09336     -43733.408     -49839.641     -548.24431      0.052630012    59.325         0.0021052005 
   2374000   250.84962     -43779.247     -49903.945     -1065.117       0.10417891     59.35          0.0041671565 
   2375000   245.24967     -43838.729     -49826.7       -1000.5309      0.098425717    59.375         0.0039370287 
   2376000   244.30622     -43890.011     -49854.946     -748.99097      0.072329381    59.4           0.0028931752 
   2377000   250.95209     -43560.734     -49687.934     -869.90542      0.084749118    59.425         0.0033899647 
   2378000   247.99272     -43767.38      -49822.325     -816.84686      0.080226902    59.45          0.0032090761 
   2379000   249.67415     -43736.006     -49832.004     -955.53191      0.097206983    59.475         0.0038882793 
   2380000   248.08928     -43804.823     -49862.125     -609.68795      0.061877716    59.5           0.0024751086 
   2381000   242.22057     -43793.027     -49707.039     -1116.9461      0.10973747     59.525         0.0043894987 
   2382000   249.30449     -43762.408     -49849.38      -915.23634      0.087341699    59.55          0.003493668  
   2383000   247.52737     -43716.255     -49759.837     -594.80614      0.058796779    59.575         0.0023518712 
   2384000   243.89284     -43816.565     -49771.408     -1128.6431      0.11423825     59.6           0.00456953   
   2385000   248.53359     -43575.755     -49643.906     -1209.8008      0.12210996     59.625         0.0048843982 
   2386000   245.92131     -43621.852     -49626.222     -871.36812      0.084106165    59.65          0.0033642466 
   2387000   247.57586     -43777.346     -49822.112     -419.59543      0.042401497    59.675         0.0016960599 
   2388000   249.84123     -43720.843     -49820.921     -782.34399      0.079397376    59.7           0.003175895  
   2389000   246.00081     -43771.194     -49777.505     -337.35152      0.032703242    59.725         0.0013081297 
   2390000   245.56256     -43883.352     -49878.962     -774.17464      0.076073192    59.75          0.0030429277 
   2391000   245.65359     -43714.767     -49712.6       -794.81348      0.075310576    59.775         0.003012423  
   2392000   246.42586     -43782.693     -49799.381     -945.22316      0.095107835    59.8           0.0038043134 
   2393000   247.71932     -43676.001     -49724.27      -728.44202      0.073488784    59.825         0.0029395513 
   2394000   246.05779     -43792.312     -49800.014     -862.10606      0.088534049    59.85          0.0035413619 
   2395000   249.64982     -43709.268     -49804.672     -657.78206      0.065090824    59.875         0.002603633  
   2396000   247.16852     -43911.202     -49946.023     -403.89998      0.041488513    59.9           0.0016595405 
   2397000   248.77795     -43868.721     -49942.837     -850.00896      0.08426021     59.925         0.0033704084 
   2398000   247.12899     -43727.8       -49761.656     -724.9497       0.07332085     59.95          0.002932834  
   2399000   249.48652     -43763.55      -49854.966     -827.73028      0.07850831     59.975         0.0031403324 
   2400000   247.63175     -43858.739     -49904.87      -645.97731      0.064730817    60             0.0025892327 
Loop time of 418.003 on 56 procs for 100000 steps with 12288 atoms

Performance: 20.670 ns/day, 1.161 hours/ns, 239.233 timesteps/s, 2.940 Matom-step/s
99.8% CPU use with 56 MPI tasks x no OpenMP threads

MPI task timing breakdown:
Section |  min time  |  avg time  |  max time  |%varavg| %total
---------------------------------------------------------------
Pair    | 185.75     | 192.01     | 196.31     |  16.9 | 45.93
Bond    | 0.017363   | 0.022542   | 0.029759   |   1.9 |  0.01
Kspace  | 111.45     | 116.15     | 122.5      |  22.4 | 27.79
Neigh   | 24.745     | 24.753     | 24.761     |   0.1 |  5.92
Comm    | 14.901     | 15.834     | 17.299     |  15.9 |  3.79
Output  | 0.22516    | 0.39674    | 0.56203    |  15.8 |  0.09
Modify  | 52.136     | 56.237     | 66.398     |  45.9 | 13.45
Other   |            | 12.61      |            |       |  3.02

Nlocal:        219.429 ave         244 max         187 min
Histogram: 1 0 1 6 8 15 13 7 4 1
Nghost:        7271.96 ave        7372 max        7178 min
Histogram: 2 7 5 7 9 11 5 3 3 4
Neighs:        96090.1 ave      109362 max       80431 min
Histogram: 1 0 1 9 12 14 10 7 1 1

Total # of neighbors = 5381048
Ave neighs/atom = 437.91081
Ave special neighs/atom = 2
Neighbor list builds = 2120
Dangerous builds = 0
kspace_style pppm/tip4p 1.0e-5
next nloop
jump SELF loop_start
run 100000 # 100ps
PPPM initialization ...
  extracting TIP4P info from pair style
  using 12-bit tables for long-range coulomb
  G vector (1/distance) = 0.32815664
  grid = 50 75 50
  stencil order = 5
  estimated absolute RMS force accuracy = 0.0035802102
  estimated relative force accuracy = 1.0781697e-05
  using double precision KISS FFT
  3d grid and FFT values/proc = 15776 4000
Generated 0 of 1 mixed pair_coeff terms from geometric mixing rule
Per MPI rank memory allocation (min/avg/max) = 11.21 | 11.35 | 11.45 Mbytes
   Step          Temp          TotEng         PotEng          Pxy           v_sxy         v_strain     v_viscosity  
   2400000   247.6338      -43858.585     -49904.766     -585.45854      0.058585778    60             0.0023434311 
   2401000   252.14032     -43727.654     -49883.865     -910.27699      0.089924947    60.025         0.0035969979 
   2402000   250.58462     -43707.64      -49825.868     -723.73317      0.073150107    60.05          0.0029260043 
   2403000   244.52627     -43889.204     -49859.512     -995.07247      0.099441363    60.075         0.0039776545 
   2404000   248.17322     -43798.128     -49857.479     -665.00282      0.063623901    60.1           0.002544956  
   2405000   245.37485     -43852.767     -49843.794     -977.07725      0.10066724     60.125         0.0040266894 
   2406000   249.44506     -43921.4       -50011.804     -693.03535      0.065787004    60.15          0.0026314802 
   2407000   245.40355     -44050.277     -50042.005     -573.11942      0.057168367    60.175         0.0022867347 
   2408000   247.20276     -43938.216     -49973.873     -659.15603      0.06900502     60.2           0.0027602008 
   2409000   248.34571     -43810.245     -49873.808     -648.1238       0.061630616    60.225         0.0024652247 
   2410000   243.85375     -44095.714     -50049.602     -763.56789      0.07756343     60.25          0.0031025372 
   2411000   251.49149     -43728.004     -49868.374     -591.9673       0.056582151    60.275         0.002263286  
   2412000   247.41297     -43924.108     -49964.897     -1167.8883      0.11299161     60.3           0.0045196644 
   2413000   248.81713     -43784.646     -49859.719     -1078.3481      0.10641656     60.325         0.0042566622 
   2414000   249.78127     -43876.203     -49974.817     -1125.0364      0.10704265     60.35          0.0042817062 
   2415000   244.43901     -43873.775     -49841.953     -1237.5042      0.12266541     60.375         0.0049066165 
   2416000   249.8831      -43850.97      -49952.07      -793.23977      0.079106789    60.4           0.0031642716 
   2417000   246.57986     -43885.2       -49905.648     -790.23722      0.077749559    60.425         0.0031099824 
   2418000   248.00008     -43828.911     -49884.035     -757.11003      0.072238281    60.45          0.0028895312 
   2419000   249.8082      -43771.008     -49870.278     -595.0339       0.056454251    60.475         0.00225817   
   2420000   245.4007      -43926.154     -49917.812     -751.73698      0.070330876    60.5           0.0028132351 
   2421000   248.7312      -43676.394     -49749.369     -740.89836      0.075189276    60.525         0.003007571  
   2422000   246.35019     -43837.884     -49852.725     -656.84598      0.06063179     60.55          0.0024252716 
   2423000   248.8067      -43853.528     -49928.346     -642.4095       0.061151051    60.575         0.002446042  
   2424000   247.32985     -43751.876     -49790.636     -653.95249      0.065784479    60.6           0.0026313792 
   2425000   250.44319     -43716.907     -49831.682     -1090.4598      0.11020152     60.625         0.0044080609 
   2426000   245.24672     -44020.903     -50008.801     -731.00477      0.070327455    60.65          0.0028130982 
   2427000   248.84507     -43735.796     -49811.552     -792.00766      0.073599196    60.675         0.0029439678 
   2428000   246.20141     -43811.965     -49823.173     -878.73691      0.090654698    60.7           0.0036261879 
   2429000   244.13278     -43743.361     -49704.062     -721.68573      0.072058733    60.725         0.0028823493 
   2430000   250.31358     -43625.423     -49737.033     -928.9814       0.088609199    60.75          0.0035443679 
   2431000   248.45936     -43851.166     -49917.503     -678.19065      0.067258652    60.775         0.0026903461 
   2432000   249.23234     -43906.373     -49991.584     -613.2763       0.060817402    60.8           0.0024326961 
   2433000   245.55073     -43919.535     -49914.857     -830.62709      0.08288407     60.825         0.0033153628 
   2434000   251.18559     -43778.59      -49911.491     -822.07786      0.082218446    60.85          0.0032887378 
   2435000   248.19336     -43999.133     -50058.976     -957.75086      0.094355849    60.875         0.003774234  
   2436000   251.66547     -43827.871     -49972.488     -1088.3325      0.10716218     60.9           0.0042864871 
   2437000   245.34916     -43863.696     -49854.096     -713.56784      0.072685738    60.925         0.0029074295 
   2438000   248.7535      -43814.641     -49888.16      -830.81325      0.080246257    60.95          0.0032098503 
   2439000   250.13013     -43868.644     -49975.775     -704.91066      0.069925547    60.975         0.0027970219 
   2440000   247.37306     -43861.524     -49901.339     -913.1663       0.089824195    61             0.0035929678 
   2441000   247.44808     -43920.787     -49962.433     -607.70606      0.057279328    61.025         0.0022911731 
   2442000   249.51091     -43869.045     -49961.057     -1236.1005      0.12289886     61.05          0.0049159544 
   2443000   250.91879     -43782.318     -49908.705     -627.73149      0.064594676    61.075         0.0025837871 
   2444000   245.04372     -43937.153     -49920.095     -444.68331      0.045277642    61.1           0.0018111057 
   2445000   245.77932     -43989.47      -49990.373     -631.20729      0.063816016    61.125         0.0025526407 
   2446000   248.00297     -44026.756     -50081.951     -908.72758      0.087346431    61.15          0.0034938572 
   2447000   247.0706      -43974.197     -50006.627     -706.86208      0.068771191    61.175         0.0027508476 
   2448000   242.5766      -43985.48      -49908.185     -663.27523      0.062937516    61.2           0.0025175006 
   2449000   248.63705     -43929.37      -50000.047     -636.48196      0.058500038    61.225         0.0023400015 
   2450000   247.12985     -43809.071     -49842.948     -806.97588      0.078365195    61.25          0.0031346078 
   2451000   245.02355     -43987.091     -49969.54      -645.77777      0.060789921    61.275         0.0024315968 
   2452000   246.93386     -43960.754     -49989.845     -737.88602      0.074179856    61.3           0.0029671942 
   2453000   247.71225     -43934.164     -49982.26      -1006.7333      0.098650801    61.325         0.003946032  
   2454000   245.42413     -43795.373     -49787.603     -893.00059      0.084526581    61.35          0.0033810633 
   2455000   247.88553     -43834.718     -49887.045     -865.66092      0.08488428     61.375         0.0033953712 
   2456000   245.59754     -43878.192     -49874.657     -811.11954      0.07243019     61.4           0.0028972076 
   2457000   252.47171     -43592.122     -49756.424     -841.36291      0.081203666    61.425         0.0032481467 
   2458000   243.95328     -43918.34      -49874.658     -1006.3991      0.097972462    61.45          0.0039188985 
   2459000   249.26334     -43882.855     -49968.822     -921.15802      0.091376091    61.475         0.0036550436 
   2460000   246.93303     -43782.958     -49812.029     -898.35616      0.087445398    61.5           0.0034978159 
   2461000   246.92141     -43823.293     -49852.08      -458.95439      0.044803627    61.525         0.0017921451 
   2462000   248.60658     -43741.639     -49811.571     -1098.0252      0.11134506     61.55          0.0044538024 
   2463000   246.08664     -43740.923     -49749.329     -579.491        0.056477388    61.575         0.0022590955 
   2464000   249.77781     -43659.995     -49758.524     -773.49849      0.078130548    61.6           0.0031252219 
   2465000   245.82161     -43849.853     -49851.788     -757.01034      0.073623621    61.625         0.0029449449 
   2466000   242.66656     -43936.399     -49861.301     -858.6988       0.082851191    61.65          0.0033140476 
   2467000   244.70277     -43760.655     -49735.273     -651.13918      0.05907831     61.675         0.0023631324 
   2468000   250.03265     -43583.127     -49687.878     -687.3834       0.069271829    61.7           0.0027708732 
   2469000   246.66557     -43683.35      -49705.891     -951.01744      0.091866827    61.725         0.0036746731 
   2470000   246.70938     -43725.26      -49748.871     -665.11759      0.066942778    61.75          0.0026777111 
   2471000   252.90161     -43723.208     -49898.007     -892.71411      0.085039872    61.775         0.0034015949 
   2472000   245.74859     -43877.491     -49877.643     -734.72151      0.075573854    61.8           0.0030229542 
   2473000   248.75498     -43735.443     -49808.999     -877.61011      0.086618592    61.825         0.0034647437 
   2474000   248.1465      -43787.483     -49846.182     -626.90883      0.062297909    61.85          0.0024919164 
   2475000   246.20496     -43945.533     -49956.828     -535.42289      0.04842033     61.875         0.0019368132 
   2476000   250.8385      -43711.003     -49835.429     -809.58753      0.079983088    61.9           0.0031993235 
   2477000   247.88308     -43830.149     -49882.417     -858.57994      0.084014464    61.925         0.0033605786 
   2478000   251.16186     -43751.306     -49883.627     -639.2484       0.066729564    61.95          0.0026691826 
   2479000   247.12186     -43876.189     -49909.871     -599.84803      0.06085129     61.975         0.0024340516 
   2480000   249.90374     -43687.77      -49789.373     -531.69583      0.051636087    62             0.0020654435 
   2481000   246.63498     -43928.828     -49950.622     -495.31993      0.050893629    62.025         0.0020357451 
   2482000   249.36874     -43705.15      -49793.691     -771.13739      0.071331058    62.05          0.0028532423 
   2483000   246.69483     -43925.656     -49948.911     -777.40126      0.074312417    62.075         0.0029724967 
   2484000   250.84594     -43758.116     -49882.724     -817.09263      0.080933157    62.1           0.0032373263 
   2485000   249.20585     -43720.178     -49804.742     -510.17963      0.048761908    62.125         0.0019504763 
   2486000   243.79602     -43819.333     -49771.811     -909.48052      0.091542049    62.15          0.003661682  
   2487000   251.6239      -43723.132     -49866.735     -834.39032      0.085773848    62.175         0.0034309539 
   2488000   246.71765     -43805.336     -49829.149     -699.16986      0.069331831    62.2           0.0027732732 
   2489000   247.45245     -43697.613     -49739.366     -897.63039      0.088018348    62.225         0.0035207339 
   2490000   247.49189     -43851.287     -49894.003     -573.1863       0.054537136    62.25          0.0021814854 
   2491000   247.57725     -43771.306     -49816.106     -785.66136      0.080935198    62.275         0.0032374079 
   2492000   246.08718     -43939.446     -49947.865     -982.64239      0.095853893    62.3           0.0038341557 
   2493000   249.50914     -43757.888     -49849.857     -839.88454      0.08243171     62.325         0.0032972684 
   2494000   241.49978     -43909.616     -49806.03      -834.45919      0.083093828    62.35          0.0033237531 
   2495000   247.32529     -43877.036     -49915.685     -977.5345       0.098526094    62.375         0.0039410438 
   2496000   246.94894     -43761.991     -49791.451     -1269.3808      0.12292237     62.4           0.0049168946 
   2497000   252.40478     -43740.178     -49902.846     -1126.8422      0.11315014     62.425         0.0045260056 
   2498000   248.5538      -43690.785     -49759.428     -683.3945       0.065943886    62.45          0.0026377554 
   2499000   249.84986     -43747.43      -49847.718     -613.51925      0.061204506    62.475         0.0024481802 
   2500000   244.32135     -43952.094     -49917.399     -531.83454      0.053591285    62.5           0.0021436514 
Loop time of 487.19 on 56 procs for 100000 steps with 12288 atoms

Performance: 17.734 ns/day, 1.353 hours/ns, 205.259 timesteps/s, 2.522 Matom-step/s
99.8% CPU use with 56 MPI tasks x no OpenMP threads

MPI task timing breakdown:
Section |  min time  |  avg time  |  max time  |%varavg| %total
---------------------------------------------------------------
Pair    | 189.02     | 194.44     | 198.64     |  15.6 | 39.91
Bond    | 0.019843   | 0.025686   | 0.034875   |   2.0 |  0.01
Kspace  | 149.71     | 155.53     | 161.97     |  20.5 | 31.92
Neigh   | 24.646     | 24.656     | 24.666     |   0.1 |  5.06
Comm    | 15.761     | 17.576     | 19.682     |  23.0 |  3.61
Output  | 0.22609    | 0.39698    | 0.56085    |  15.7 |  0.08
Modify  | 73.795     | 79.729     | 92.095     |  52.0 | 16.37
Other   |            | 14.84      |            |       |  3.05

Nlocal:        219.429 ave         245 max         205 min
Histogram: 2 10 8 12 10 8 3 2 0 1
Nghost:         6850.8 ave        6917 max        6790 min
Histogram: 1 4 11 8 10 5 4 8 2 3
Neighs:        96049.7 ave      108509 max       89397 min
Histogram: 3 10 13 7 12 6 2 2 0 1

Total # of neighbors = 5378783
Ave neighs/atom = 437.72648
Ave special neighs/atom = 2
Neighbor list builds = 2122
Dangerous builds = 0
kspace_style pppm/tip4p 1.0e-5
next nloop
jump SELF loop_start
# run ${Ttotal}
# variable nloop loop ${nloops}
# label loop_start
# run ${stepsPerReset}
# kspace_style pppm/tip4p 1.0e-5
# next nloop
# jump SELF loop_start
Total wall time: 3:02:50
