LAMMPS data file via write_data, version 7 Aug 2019, timestep = 5466300

1536 atoms
2 atom types

0.0000000000000000e+00 2.0000000000000000e+01 xlo xhi
0.0000000000000000e+00 2.0000000000000000e+01 ylo yhi
-4.0000000000000000e+01 6.0000000000000000e+01 zlo zhi

Masses

1 15.9994
2 1.00784

Atoms

1 1 7.4039415309187462e-01 1.6165769943198079e+01 4.8789363490259973e+01 0 -9 -1
2 2 2.0402054990935092e-01 1.6613876025869960e+01 4.9425489063874963e+01 0 -9 -1
3 2 3.3341845481097759e-01 1.6212232161316923e+01 4.7940185464387461e+01 0 -9 -1
4 1 7.2977818335737012e+00 2.6933999754470865e+00 3.2426302452611125e+01 -3 -1 0
5 2 6.5315404515799589e+00 2.2087991937326730e+00 3.2697462269363257e+01 -3 -1 0
6 2 7.8230680370704473e+00 2.1059593513617574e+00 3.1947567615968740e+01 -3 -1 0
7 1 5.7700665771799855e+00 1.4920800598402874e+01 5.2499309036519932e+01 -4 6 0
8 2 5.4070963257916294e+00 1.4124056343966354e+01 5.2894858758390072e+01 -4 6 0
9 2 6.4280212512781425e+00 1.5111523637006274e+01 5.3160647623462872e+01 -4 6 0
10 1 4.6967515176482353e+00 6.7763135468866436e+00 4.1878616032062325e+01 -1 5 0
11 2 4.7212949853406156e+00 6.7304430347594382e+00 4.0900160827304454e+01 -1 5 0
12 2 4.5476132218528384e+00 5.8639127218629996e+00 4.2210049450577571e+01 -1 5 0
13 1 5.0686231720016002e+00 3.1530018783333982e+00 3.4334002081682513e+01 6 2 1
14 2 5.6977259447648532e+00 2.7273828674182079e+00 3.4923496354138763e+01 6 2 1
15 2 5.4443011087093618e+00 4.0411954752702579e+00 3.4212356073486596e+01 6 2 1
16 1 5.5639441358366621e+00 1.0666565111354721e+01 5.0616539261660321e+01 3 -1 -1
17 2 4.7579866418226082e+00 1.0755454812079730e+01 5.1121131616625988e+01 3 -1 -1
18 2 5.2702605504070110e+00 1.0945381109113310e+01 4.9686585783195795e+01 3 -1 -1
19 1 2.5708470229355602e+00 3.7398598609088651e+00 5.5380780095904946e+01 -5 6 -1
20 2 1.9432238339656240e+00 3.8000023925447208e+00 5.6122496189812182e+01 -5 6 -1
21 2 3.0867615461764140e+00 4.5342075658029337e+00 5.5241370014646819e+01 -5 6 -1
22 1 1.3188956272815325e+01 6.0633866996031474e+00 5.8836346954198973e+01 4 -12 -1
23 2 1.3127355761062146e+01 5.3280678191062014e+00 5.9424397593922144e+01 4 -12 -1
24 2 1.3878472440207013e+01 5.7562136407444253e+00 5.8273884944129364e+01 4 -12 -1
25 1 6.1320696533990562e+00 3.7928539353214794e+00 -3.6122216324620972e+01 -1 0 0
26 2 6.3696607336266382e+00 3.7436428037530112e+00 -3.7065854068889237e+01 -1 0 0
27 2 5.1873963243969641e+00 3.8214037006559818e+00 -3.6167498140087673e+01 -1 0 0
28 1 7.4731043937863095e+00 4.6965753150457372e+00 -3.4154929627840843e+01 2 0 0
29 2 6.7176552705778487e+00 4.9365196588592744e+00 -3.3597549630628528e+01 2 0 0
30 2 6.9501937036761525e+00 4.3195115212272555e+00 -3.4878824720237901e+01 2 0 0
31 1 1.9662141271707370e+01 2.5108641240568410e+00 4.3272703777559705e+01 1 -5 -1
32 2 1.9617589454520839e+01 1.6621517633647744e+00 4.3665592571440762e+01 1 -5 -1
33 2 7.3794308309424031e-02 2.4885109902209130e+00 4.2428866828946845e+01 2 -5 -1
34 1 1.1679727068021780e+01 3.0241392888763916e+00 5.3867684692640182e+01 0 0 -2
35 2 1.1583394970261491e+01 3.0317723569874424e+00 5.4838237148944600e+01 0 0 -2
36 2 1.2170001409224151e+01 3.8418569542062255e+00 5.3748518319147514e+01 0 0 -2
37 1 1.3952162319695892e+01 3.7815265748611444e+00 3.0997181270487545e+01 -11 3 0
38 2 1.4442727687844272e+01 3.7536440906939155e+00 3.0135619618030965e+01 -11 3 0
39 2 1.4245377172144321e+01 4.6221966793279678e+00 3.1286141620641089e+01 -11 3 0
40 1 4.3491296227665455e+00 1.7322066870996647e+01 -3.2325618720005515e+01 -7 -5 0
41 2 4.3326725633616618e+00 1.6576343206085571e+01 -3.1714586427631122e+01 -7 -5 0
42 2 5.3121011227481976e+00 1.7490637185196640e+01 -3.2323095675916825e+01 -7 -5 0
43 1 7.6384601490627260e+00 1.2250255673551679e+01 4.9095967189358866e+01 2 1 -1
44 2 7.4262384983124283e+00 1.3177976207623439e+01 4.9360064867898799e+01 2 1 -1
45 2 7.0218861880286738e+00 1.1802486133165797e+01 4.9708753863750530e+01 2 1 -1
46 1 8.8573257064503785e+00 1.4202893492333859e+01 -3.7340838317492391e+01 5 1 -1
47 2 8.4256159885951813e+00 1.5054084633441985e+01 -3.7113239014810326e+01 5 1 -1
48 2 9.7776509739133157e+00 1.4351196594954747e+01 -3.7090939765164286e+01 5 1 -1
49 1 1.5591858895638408e+01 1.0770545526930331e+01 5.5466289667897257e+01 -3 8 -2
50 2 1.4678616485355295e+01 1.0535436230670671e+01 5.5534353148224596e+01 -3 8 -2
51 2 1.5587809536815231e+01 1.1636057950047540e+01 5.5958323921018710e+01 -3 8 -2
52 1 8.9226203922865714e+00 7.0057618338971661e-01 3.0020854315067794e+01 9 5 -1
53 2 8.4320330111431048e+00 1.9907312113202110e+01 2.9776044782838092e+01 9 4 -1
54 2 8.5768681831151437e+00 1.4317137600529917e+00 2.9526419552293635e+01 9 5 -1
55 1 1.0846146035398791e+01 1.0770416959937380e+01 4.5290498007181874e+01 -5 5 -1
56 2 1.1702187906240685e+01 1.0391683299224935e+01 4.5028409074079654e+01 -5 5 -1
57 2 1.0773739715774957e+01 1.1456764207054018e+01 4.4727653685504187e+01 -5 5 -1
58 1 1.8566250189885452e+01 1.6095956856474704e+01 5.9744239234173484e+01 0 4 -1
59 2 1.7670703092488491e+01 1.5654225095641907e+01 5.9651249644207319e+01 0 4 -1
60 2 1.9089309392108810e+01 1.5739616408756088e+01 5.8966228157525819e+01 0 4 -1
61 1 6.9043998974636773e+00 1.4665707633507430e+00 3.6251597711863390e+01 -3 4 0
62 2 7.7199687508285377e+00 1.8444800159890908e+00 3.5878381791648586e+01 -3 4 0
63 2 7.0195484559658325e+00 9.8182840916656844e-01 3.7087519714106143e+01 -3 4 0
64 1 2.9486812085532659e+00 1.6674931581495379e+01 5.1884179239002890e+01 2 0 -1
65 2 2.3135762363925556e+00 1.6273635008855560e+01 5.1283382253791082e+01 2 0 -1
66 2 3.4445548878780246e+00 1.5884010335769142e+01 5.2020226598002978e+01 2 0 -1
67 1 1.3536579256732521e+01 5.4911545015933969e+00 3.9037348081550299e+01 2 3 -1
68 2 1.4190755287008296e+01 5.6503053620589760e+00 3.9726847611787520e+01 2 3 -1
69 2 1.2687482610201718e+01 5.6088282287574485e+00 3.9486693317192149e+01 2 3 -1
70 1 4.1395505543051705e+00 1.5260781357447652e+01 3.8912523069273107e+01 -1 1 0
71 2 4.6607420918898228e+00 1.5089543506367434e+01 3.9730146663697042e+01 -1 1 0
72 2 4.4517893650671123e+00 1.6009719830308207e+01 3.8372275583794760e+01 -1 1 0
73 1 1.8560252197143051e+01 1.2838435055347110e+01 4.3135617973476585e+01 2 4 -1
74 2 1.9504290241017557e+01 1.2924198263952260e+01 4.3337039143297368e+01 2 4 -1
75 2 1.8268791205594681e+01 1.2368367536524222e+01 4.3992190150809094e+01 2 4 -1
76 1 1.5118248063730464e+00 1.3562974872376360e+01 4.9180144931116374e+01 -2 1 -1
77 2 1.1716430599513710e+00 1.4437367919518213e+01 4.9159404962734264e+01 -2 1 -1
78 2 1.0425970817918817e+00 1.2970901422136912e+01 4.9841971407102996e+01 -2 1 -1
79 1 1.1545557789289411e+01 1.2625088368547024e+01 4.7389302073784151e+01 2 1 -2
80 2 1.0999550563751708e+01 1.1987927811528975e+01 4.6968997304298455e+01 2 1 -2
81 2 1.2371407144552462e+01 1.2114083215294380e+01 4.7318960739719358e+01 2 1 -2
82 1 1.9404893919733052e+01 6.8976019568191784e+00 -3.7268855519366475e+01 -2 6 -1
83 2 3.3368013956816750e-01 6.9381861110856979e+00 -3.7184208272280060e+01 -1 6 -1
84 2 1.9333045365759151e+01 6.9811356943628429e+00 -3.8265821757204016e+01 -2 6 -1
85 1 4.8186022495875562e+00 7.0830083213404569e+00 3.8834402669713882e+01 -1 1 -2
86 2 4.5175140969307979e+00 8.0140475269890530e+00 3.8941405822703160e+01 -1 1 -2
87 2 5.4131241311911928e+00 7.1478384497733911e+00 3.8077778445207009e+01 -1 1 -2
88 1 2.8050027180850270e+00 1.8835375331633124e+01 3.8703065026196782e+01 -1 -7 1
89 2 3.3322552394477887e+00 1.9604220949663333e+01 3.9085861296515652e+01 -1 -7 1
90 2 2.4679867048887445e+00 1.8441350124785878e+01 3.9479299658013112e+01 -1 -7 1
91 1 3.5683361813352725e+00 9.3990981493940839e-01 -3.8632156386079416e+01 1 -4 1
92 2 2.9920302923054107e+00 1.8777418371156504e-01 -3.8601717269727089e+01 1 -4 1
93 2 4.4948091317918983e+00 5.8243459259735597e-01 -3.8884105544468362e+01 1 -4 1
94 1 1.9777982220856419e+01 7.4724146859822174e+00 3.8643078317654194e+01 0 4 -1
95 2 1.2213666541484451e-02 8.3761314671686247e+00 3.8401247725675368e+01 1 4 -1
96 2 6.5486211385287085e-01 7.1114770611933142e+00 3.8704249233304878e+01 1 4 -1
97 1 2.5714613348011737e+00 5.5232931741798321e+00 4.8440710784346152e+01 3 -8 -2
98 2 3.4032783734032064e+00 5.9366137933182079e+00 4.8224590365757003e+01 3 -8 -2
99 2 2.1608572303711977e+00 6.2528860668774611e+00 4.8964662774195844e+01 3 -8 -2
100 1 8.4404883293826778e+00 9.7619438907980172e+00 4.4568495109757194e+01 -1 -5 0
101 2 9.2911207015526198e+00 1.0042338906116179e+01 4.4834442862713900e+01 -1 -5 0
102 2 7.8603268285837382e+00 1.0065425619779671e+01 4.5253581392905424e+01 -1 -5 0
103 1 6.1007695829614867e+00 2.5178357674911318e+00 4.7079497761486202e+01 -1 -2 -3
104 2 6.1240029757590753e+00 1.6179220634457225e+00 4.6653206727548344e+01 -1 -2 -3
105 2 6.9805407154834880e+00 2.7978519825364545e+00 4.7151650790046155e+01 -1 -2 -3
106 1 1.4027380272557243e+01 1.5399945038831163e+01 3.9922852191797119e+01 -1 -8 1
107 2 1.4210188222404858e+01 1.4675942180500019e+01 3.9270609729905502e+01 -1 -8 1
108 2 1.4415244524630941e+01 1.5057606958302994e+01 4.0752970579857134e+01 -1 -8 1
109 1 7.3821244802686685e+00 1.2373066596888320e+00 3.8915319578990619e+01 4 3 0
110 2 7.9142469758012108e+00 4.8190626006903592e-01 3.9016290102986495e+01 4 3 0
111 2 8.1207555362759241e+00 1.9041350785466717e+00 3.8830524374726913e+01 4 3 0
112 1 1.3077457246634492e+00 1.6271462142517290e+01 -3.6525440218481656e+01 -2 -16 -1
113 2 3.3217395164366920e-01 1.5978632930525313e+01 -3.6652293630429412e+01 -2 -16 -1
114 2 1.3898043260799124e+00 1.6577682012310703e+01 -3.5611308998728255e+01 -2 -16 -1
115 1 3.7931705727362570e+00 1.2046152303685417e+01 3.1112679822792646e+01 -1 8 -3
116 2 3.6596715404183020e+00 1.2797247454968595e+01 3.0497038516786425e+01 -1 8 -3
117 2 2.9110789455370569e+00 1.1844113775164816e+01 3.1479618924416098e+01 -1 8 -3
118 1 9.7146812304741861e+00 3.3778681088834182e+00 -3.9722520895590499e+01 -4 2 -1
119 2 8.7721735055531234e+00 3.4588463740288624e+00 -3.9762392962140559e+01 -4 2 -1
120 2 1.0155230029908390e+01 3.7672618549990218e+00 5.9539303464571489e+01 -4 2 -2
121 1 1.1781492446003513e+01 3.8339451158440272e+00 3.3785783380596655e+01 0 8 -2
122 2 1.2472408867528189e+01 4.5464995090966687e+00 3.3816495141572304e+01 0 8 -2
123 2 1.2066579522015941e+01 3.3670529580659339e+00 3.2935717886217461e+01 0 8 -2
124 1 1.6333432213688823e+01 9.1878918319611351e+00 5.7941853623058144e+01 -5 -2 0
125 2 1.7226746108671840e+01 8.7837025484084101e+00 5.7872071200837034e+01 -5 -2 0
126 2 1.6194232934329548e+01 9.3993476945355869e+00 5.6980107222097942e+01 -5 -2 0
127 1 2.3128474499079577e+00 1.5016505569212072e+01 5.4585181738165112e+01 -2 -10 -2
128 2 2.0634457026525275e+00 1.5732946999847005e+01 5.4046959135081984e+01 -2 -10 -2
129 2 1.5103731633991433e+00 1.4808042684932520e+01 5.5061095917179713e+01 -2 -10 -2
130 1 1.2780691599357224e+01 1.7632562102008670e+01 2.7119746056865111e+01 5 -4 -1
131 2 1.3159335092977409e+01 1.7235865142511230e+01 2.7951979104030361e+01 5 -4 -1
132 2 1.3090768570642718e+01 1.8475165454499813e+01 2.6796359017255892e+01 5 -4 -1
133 1 2.4587820478806202e+00 1.8911518164156085e+01 2.9825718230372463e+01 7 4 0
134 2 2.9446553934304660e+00 1.8138945053319738e+01 2.9530956393944670e+01 7 4 0
135 2 1.7002046674095352e+00 1.8612185219887433e+01 3.0454449496014274e+01 7 4 0
136 1 2.9374780434865384e+00 1.7730455392223323e+01 5.9623984834666217e+01 5 -14 1
137 2 2.1063215155675628e+00 1.7995715727447482e+01 5.9961703848390705e+01 5 -14 1
138 2 2.9199270562167237e+00 1.8327433944036432e+01 5.8773388307572610e+01 5 -14 1
139 1 1.2839414901338399e+01 9.7166220817140392e+00 5.8603977390321987e+01 1 -3 -2
140 2 1.2743262425942529e+01 1.0565409447926980e+01 5.8136665279379976e+01 1 -3 -2
141 2 1.3735930915937560e+01 9.4602856720526685e+00 5.8264962308434704e+01 1 -3 -2
142 1 7.0567483975793568e+00 1.7034754410002638e+01 4.2505031428207637e+01 2 4 -2
143 2 6.2488312514956474e+00 1.7613665753969627e+01 4.2400502562678696e+01 2 4 -2
144 2 7.4420337034523367e+00 1.7536270136892075e+01 4.3243840624465605e+01 2 4 -2
145 1 6.7594420734380529e+00 1.1395940837881666e+01 3.0630121425294337e+01 -5 2 -1
146 2 5.8256496127403672e+00 1.1574864375359356e+01 3.0531049193172137e+01 -5 2 -1
147 2 7.1303981836761023e+00 1.2208507775168053e+01 3.0986787311010755e+01 -5 2 -1
148 1 8.1346959452996015e-01 9.0912877403618317e+00 4.1168074468559965e+01 5 -2 -1
149 2 1.9886051877095557e+01 8.8314428586076588e+00 4.1261066325819669e+01 4 -2 -1
150 2 7.9490153846720624e-01 9.9046256735957972e+00 4.0668354928299017e+01 5 -2 -1
151 1 4.3630234258818357e+00 1.2030202836159470e+01 -3.6048053619822618e+01 -5 3 1
152 2 4.6449142174491547e+00 1.1227127517464071e+01 -3.5574545656316737e+01 -5 3 1
153 2 3.4452253893946163e+00 1.2022550222744892e+01 -3.5763732140141506e+01 -5 3 1
154 1 1.9450248167820789e+01 1.4153185559923340e+01 4.0839918513380610e+01 -1 -2 0
155 2 1.8916368646438205e+01 1.4868266605863164e+01 4.0385249340139481e+01 -1 -2 0
156 2 1.8757053551960823e+01 1.3701566941074750e+01 4.1384482039777986e+01 -1 -2 0
157 1 7.7102924373254780e+00 6.9991714694043754e+00 4.2531902691983987e+01 0 -1 0
158 2 6.9383458379059926e+00 6.7593927965322615e+00 4.2101178087806908e+01 0 -1 0
159 2 7.2405810626136056e+00 7.4603931619903756e+00 4.3226410650696209e+01 0 -1 0
160 1 1.9036106856568555e+00 1.6681342605822895e+01 -3.3852705371369098e+01 3 6 0
161 2 2.0824036423847478e+00 1.5729573713691906e+01 -3.3873433380051338e+01 3 6 0
162 2 2.6678373305831120e+00 1.7136084310384454e+01 -3.3481549434607651e+01 3 6 0
163 1 1.2294633886714031e+01 6.2926127251149495e+00 5.5372307251497318e+01 -2 -4 -2
164 2 1.2718623568439545e+01 5.4984933734656387e+00 5.5877709881102795e+01 -2 -4 -2
165 2 1.2327503400508816e+01 6.1032050996019311e+00 5.4442774168043663e+01 -2 -4 -2
166 1 1.9057306063184996e+01 1.7054586951329458e+01 2.8430635122878947e+01 2 3 0
167 2 1.9321689974041213e+01 1.6861037644792162e+01 2.7503147227209286e+01 2 3 0
168 2 1.8176973182819275e+01 1.7375364153817713e+01 2.8365445085272192e+01 2 3 0
169 1 1.0837618324785423e+01 1.4576049742605338e+01 3.8452068862696898e+01 5 -3 -2
170 2 1.1643311179509352e+01 1.4967501147995536e+01 3.8931265147453502e+01 5 -3 -2
171 2 1.0992039132024832e+01 1.4561550621016734e+01 3.7469533683838243e+01 5 -3 -2
172 1 1.3480269167947418e+00 5.8423818592630541e+00 3.2309665178705508e+01 -3 -3 -2
173 2 1.4715432451767363e+00 4.9836529866903962e+00 3.2691528487584563e+01 -3 -3 -2
174 2 5.9459178457508566e-01 6.2053963010602775e+00 3.2702251964188150e+01 -3 -3 -2
175 1 6.8076438996041730e+00 9.8427341383946683e+00 -3.7067466422416103e+01 1 5 -1
176 2 7.3562972648765088e+00 9.6004291817806493e+00 -3.7778758842749909e+01 1 5 -1
177 2 7.5014779341250213e+00 1.0117066338462600e+01 -3.6447778161788932e+01 1 5 -1
178 1 4.2909906261469519e+00 9.8365003167658056e+00 -3.4367551375148338e+01 -5 -5 1
179 2 4.1392930300521940e+00 8.9075521305607488e+00 -3.4514384589409460e+01 -5 -5 1
180 2 4.9448879884421908e+00 9.9404271648863052e+00 -3.3656963312830669e+01 -5 -5 1
181 1 8.9059353767853278e+00 2.5104846320693044e+00 3.4673158985114355e+01 -4 -3 1
182 2 9.3563311448941100e+00 3.2387185128533749e+00 3.5107499916468576e+01 -4 -3 1
183 2 8.5185593617470978e+00 2.8062150934500911e+00 3.3818570909946907e+01 -4 -3 1
184 1 4.2245087661309562e+00 1.3072317417635951e+01 5.4234298109543396e+01 3 -3 -2
185 2 3.6210574309462773e+00 1.3837048284015641e+01 5.4249335114600186e+01 3 -3 -2
186 2 4.8496060152734977e+00 1.2972733265981063e+01 5.4962873181875061e+01 3 -3 -2
187 1 1.1595693757709256e+01 9.2269429864892487e+00 -3.8885761308244021e+01 -8 -2 -1
188 2 1.2081884382452476e+01 8.9167249772849164e+00 -3.8131296777151356e+01 -8 -2 -1
189 2 1.2251668196537437e+01 9.2922845303939052e+00 -3.9604597660577610e+01 -8 -2 -1
190 1 6.2664250508750392e+00 3.4702400669388775e+00 5.7083834010204036e+01 -4 -6 -2
191 2 6.3095731147274678e+00 4.0391233103896571e+00 5.6270831203913907e+01 -4 -6 -2
192 2 6.2728812870443997e+00 2.5764923181931056e+00 5.6792277595333871e+01 -4 -6 -2
193 1 4.0963496532873895e+00 1.0489285087365646e+01 4.4901423429290908e+01 4 0 0
194 2 4.0115131345283652e+00 1.0748144157711845e+01 4.3936935084000481e+01 4 0 0
195 2 5.0073449735544120e+00 1.0308119392321936e+01 4.5134427724534177e+01 4 0 0
196 1 1.4049515928091607e+01 4.8102092514168415e+00 -3.4188677283284356e+01 -9 2 0
197 2 1.4010719690020849e+01 3.8706260854121464e+00 -3.3980621497173743e+01 -9 2 0
198 2 1.3699374357926484e+01 5.0497885435909540e+00 -3.5001827693964948e+01 -9 2 0
199 1 1.0886475094948263e+01 9.8428109551238052e-01 5.0078041904134274e+01 -3 -4 -1
200 2 1.1125286648131841e+01 1.9025896505267159e+00 4.9825089625388394e+01 -3 -4 -1
201 2 9.9973934555750503e+00 9.4623954296695423e-01 4.9641979713297751e+01 -3 -4 -1
202 1 1.7970848719717296e+01 1.7403989695752731e+01 4.2820063911439725e+01 -7 -7 -1
203 2 1.7611831106861722e+01 1.8325692219313023e+01 4.2870624847337830e+01 -7 -7 -1
204 2 1.7585061017134109e+01 1.6947157573970493e+01 4.3577008327746377e+01 -7 -7 -1
205 1 1.3709312541802591e+01 6.2171454976751663e+00 -3.6406554531018479e+01 0 -8 2
206 2 1.3536863326420693e+01 6.1300948483373690e+00 -3.7336496334953019e+01 0 -8 2
207 2 1.4530749149414689e+01 6.6796934214361086e+00 -3.6305801198093732e+01 0 -8 2
208 1 1.6652602362840401e+01 9.2890077260764006e+00 5.3010776502304410e+01 -1 -4 -1
209 2 1.6164250080145397e+01 1.0141955548452582e+01 5.3120722241415329e+01 -1 -4 -1
210 2 1.6266935504888071e+01 8.8754269990718218e+00 5.2159434020647232e+01 -1 -4 -1
211 1 1.0702490342020825e+01 5.2161524875151981e+00 5.8158236689472538e+01 -4 -3 0
212 2 1.1241015697662558e+01 6.0318959924580833e+00 5.8148637310847612e+01 -4 -3 0
213 2 9.7909488677667014e+00 5.5213132619399730e+00 5.7955159047430321e+01 -4 -3 0
214 1 1.1514752386100838e+01 1.3546982545104541e+01 4.3832537379292020e+01 -2 4 -1
215 2 1.2393695191541909e+01 1.3894062623757453e+01 4.3790752643780728e+01 -2 4 -1
216 2 1.1210381247578175e+01 1.3800751258566224e+01 4.2985488637963520e+01 -2 4 -1
217 1 1.5688132671608411e+01 8.2803580195874673e+00 -3.6213555955754259e+01 1 2 1
218 2 1.5433441324048628e+01 9.0066640125976321e+00 -3.5642032689008325e+01 1 2 1
219 2 1.6567525516702602e+01 8.0716495002873305e+00 -3.5866395408594471e+01 1 2 1
220 1 5.0921406001248339e+00 1.4404806113117646e+01 4.1447277644721694e+01 -4 -3 0
221 2 5.2098264510929733e+00 1.5103549563464341e+01 4.2084677912245724e+01 -4 -3 0
222 2 5.8783988247578067e+00 1.4457658406935749e+01 4.0875159235194651e+01 -4 -3 0
223 1 1.5363010745339615e+01 7.4015639512112497e+00 5.1171288532212074e+01 7 -1 0
224 2 1.5480745932198364e+01 6.5212433152540159e+00 5.1563913325109077e+01 7 -1 0
225 2 1.4650468181450526e+01 7.2445616773888402e+00 5.0472254801510871e+01 7 -1 0
226 1 7.3048739781608940e-01 1.9591656743829944e+01 4.1276122200708691e+01 1 -2 -1
227 2 7.2008888133754156e-01 1.8685839692950800e+01 4.0976251606899886e+01 1 -2 -1
228 2 2.6161614723787563e-01 1.7719531686874765e-01 4.0654995169032240e+01 1 -1 -1
229 1 1.1299894010100108e+01 1.4025197546926738e+00 3.1371525834642220e+01 -1 -5 0
230 2 1.0396216129944639e+01 1.2248288564397256e+00 3.0924893134378848e+01 -1 -5 0
231 2 1.1566174801455201e+01 2.1383989752187000e+00 3.0856770106856935e+01 -1 -5 0
232 1 1.1261364484833816e+01 6.1594628990546942e+00 2.8506398962055897e+01 1 -1 1
233 2 1.0425514527660674e+01 5.8217495436078082e+00 2.8117897687909064e+01 1 -1 1
234 2 1.1108483965208693e+01 6.8267163868174325e+00 2.9213291868289300e+01 1 -1 1
235 1 1.6747369423043367e+01 1.5522259540003219e+01 5.5451577954500806e+01 -3 -6 -1
236 2 1.6932193197112010e+01 1.6474269690309583e+01 5.5767821854073667e+01 -3 -6 -1
237 2 1.5822000608811722e+01 1.5256688736383515e+01 5.5619334731506910e+01 -3 -6 -1
238 1 2.1132300328387918e-01 2.1891290182104806e+00 5.1230301299625545e+01 3 -2 0
239 2 1.0921490274575179e+00 2.4179155348466530e+00 5.0915594171822342e+01 3 -2 0
240 2 1.1521427355539775e-01 2.3092803431601512e+00 5.2149384424181392e+01 3 -2 0
241 1 1.2987032177505974e+01 1.4708722283368038e+01 5.2820187374162224e+01 6 5 -3
242 2 1.3086317855138880e+01 1.4271304806512948e+01 5.1978637835651554e+01 6 5 -3
243 2 1.3593591164481420e+01 1.4318720937043862e+01 5.3420225913641445e+01 6 5 -3
244 1 1.3314351853697815e+01 1.7598833618193275e+01 5.2437296243881931e+01 -5 8 0
245 2 1.3186532146606059e+01 1.6608507789260688e+01 5.2518461468704537e+01 -5 8 0
246 2 1.2471043367775323e+01 1.8009818106154881e+01 5.2241858973769133e+01 -5 8 0
247 1 1.9541802780665002e+01 1.4257455183220861e+01 3.1840647351574408e+01 4 0 0
248 2 1.8811615102655356e+01 1.4600631858363096e+01 3.2228204991381318e+01 4 0 0
249 2 1.9537962865573107e+01 1.3294857489684937e+01 3.1692404426625927e+01 4 0 0
250 1 7.3005685161995881e+00 8.4791972010953796e+00 2.8818820856696547e+01 -1 0 -2
251 2 7.0325907576397686e+00 9.1759038029979862e+00 2.8195153110544279e+01 -1 0 -2
252 2 6.6613340553523743e+00 8.6949039480418868e+00 2.9542197963371002e+01 -1 0 -2
253 1 1.7122729658133252e+01 5.6328605970706080e+00 5.6894473404858296e+01 6 2 -1
254 2 1.7575747357135654e+01 6.5475098896150010e+00 5.6899722252883045e+01 6 2 -1
255 2 1.6164591282992518e+01 5.7651244229192313e+00 5.6999427362062576e+01 6 2 -1
256 1 1.3496663473480233e+01 1.2372667745592613e+01 3.4625614791977974e+01 -1 -1 0
257 2 1.2755859857808417e+01 1.2433919170504804e+01 3.3961013236177521e+01 -1 -1 0
258 2 1.4207599153785644e+01 1.2182358402134952e+01 3.4033686766042294e+01 -1 -1 0
259 1 8.9404907956325648e+00 5.3826438039686408e+00 4.7365072525915338e+01 5 3 -1
260 2 9.5227402158912628e+00 4.6247318356335620e+00 4.7361047136677335e+01 5 3 -1
261 2 9.3671977992731765e+00 6.0752117002269124e+00 4.7858782786914219e+01 5 3 -1
262 1 3.8000031099680234e+00 1.1216498514018273e+01 4.2279935266683445e+01 11 -3 -1
263 2 3.0613353212369918e+00 1.1168998977550350e+01 4.1654761738822863e+01 11 -3 -1
264 2 4.5829430329737182e+00 1.1309339750429958e+01 4.1739782798888562e+01 11 -3 -1
265 1 1.5732054857369517e+01 1.4955966925751136e+01 4.6154512705066360e+01 14 -1 0
266 2 1.5666417556703983e+01 1.5677015946581550e+01 4.5422146802642615e+01 14 -1 0
267 2 1.5508828996921649e+01 1.4156089978090789e+01 4.5746595036876045e+01 14 -1 0
268 1 1.2812948590219488e+01 1.4718748243867517e+00 4.0293417017646362e+01 -1 0 -2
269 2 1.2421521590142177e+01 2.1478522829928988e+00 4.0893310227434824e+01 -1 0 -2
270 2 1.3118363636740416e+01 7.1988251289375826e-01 4.0830871165887551e+01 -1 0 -2
271 1 1.0265506207464723e+01 6.8069721722548291e+00 -3.8433620202737835e+01 2 -2 -1
272 2 1.0892452814212801e+01 7.4875952785712530e+00 -3.8715126909634989e+01 2 -2 -1
273 2 1.0869396785899974e+01 6.1871578927983784e+00 -3.7994900839210274e+01 2 -2 -1
274 1 1.0540007844804089e+01 9.7463033634214860e+00 5.5058399030792103e+01 -5 -3 0
275 2 1.0153462522067692e+01 1.0002399216930133e+01 5.4199925408543287e+01 -5 -3 0
276 2 1.0346650389756096e+01 1.0361702515690865e+01 5.5768566426074145e+01 -5 -3 0
277 1 1.8483582447922313e+01 3.7025165729930292e+00 5.5793430261726499e+01 -3 3 -1
278 2 1.7853535879792798e+01 3.1920930750643173e+00 5.5211115160386704e+01 -3 3 -1
279 2 1.7883532160915923e+01 4.2086169621378113e+00 5.6338529275954826e+01 -3 3 -1
280 1 1.6279764673203779e+01 1.2489891984850331e+01 -3.2567663893233124e+01 0 0 0
281 2 1.6814735332858017e+01 1.1666029541477254e+01 -3.2504780689705250e+01 0 0 0
282 2 1.5356740526950135e+01 1.2245563439541357e+01 -3.2694248817152079e+01 0 0 0
283 1 1.7800308464249937e+01 5.2867129505704078e+00 -3.9788851326611343e+01 1 7 0
284 2 1.7372265530744812e+01 4.6075099641464909e+00 5.9680736147127149e+01 1 7 -1
285 2 1.7001731796197610e+01 5.5762874049578093e+00 -3.9257624503266598e+01 1 7 0
286 1 8.4443123338729915e+00 1.7491915353370086e+01 4.5042367177511203e+01 -6 8 -3
287 2 8.7641846142801594e+00 1.7960861854753521e+01 4.5814770673921728e+01 -6 8 -3
288 2 8.8982878427288927e+00 1.6604943582672576e+01 4.5192011225388775e+01 -6 8 -3
289 1 8.0473223622572725e+00 1.2610820765788841e+01 4.6182528729274217e+01 -3 2 0
290 2 7.3530892664436127e+00 1.3315618253452083e+01 4.5894898467082342e+01 -3 2 0
291 2 7.6531738903401809e+00 1.2252897989586979e+01 4.6972434695370154e+01 -3 2 0
292 1 1.9250515198547937e+01 1.6817531404267907e+01 -3.2957276496972561e+01 -3 1 0
293 2 1.8981098472513843e+01 1.5985121366719886e+01 -3.2712217578281894e+01 -3 1 0
294 2 1.8646977904096237e-01 1.6741505503520425e+01 -3.3110793484311451e+01 -2 1 0
295 1 6.6404105573745582e+00 8.8208316893430254e+00 5.5076137250384093e+01 6 -3 -1
296 2 7.0347745397461807e+00 8.9002033006006194e+00 5.5992954631397879e+01 6 -3 -1
297 2 5.9289082302612819e+00 9.4097333305018260e+00 5.5249891993145013e+01 6 -3 -1
298 1 9.2767073053858553e+00 1.2566457846111444e+01 4.2807916181517740e+01 3 -6 -1
299 2 8.7142009459141718e+00 1.2016706782120764e+01 4.2180195910568372e+01 3 -6 -1
300 2 8.8991212553317727e+00 1.2275181050738521e+01 4.3652018908360191e+01 3 -6 -1
301 1 1.2954510094729038e+01 5.2991380145647771e+00 4.3099457972803322e+01 -8 -2 -2
302 2 1.3677395150177057e+01 5.7547830572246008e+00 4.2572425436665078e+01 -8 -2 -2
303 2 1.2377592048752742e+01 5.9207641479765201e+00 4.3529958527399074e+01 -8 -2 -2
304 1 1.2419985925710053e+01 7.0865482639602329e+00 3.6100130902436639e+01 3 8 0
305 2 1.3046938210559837e+01 7.4585338869733047e+00 3.6760241437406449e+01 3 8 0
306 2 1.2937722487974451e+01 6.7229261384231309e+00 3.5392785107080449e+01 3 8 0
307 1 1.1569795501569935e+01 1.4880130356275254e+01 3.2324028022850051e+01 0 2 -1
308 2 1.1410457577788090e+01 1.5574545389155597e+01 3.1647785191518125e+01 0 2 -1
309 2 1.0757476161826469e+01 1.4334236823328188e+01 3.2232241200958455e+01 0 2 -1
310 1 1.8950084519896954e+01 1.9114727774147536e+01 5.4398075811709489e+01 -1 -9 0
311 2 1.8377827569603966e+01 1.9187903141450693e+01 5.3633111739630735e+01 -1 -9 0
312 2 1.9293696978546564e+01 1.9896326805981335e+01 5.4810034453475552e+01 -1 -9 0
313 1 3.9589858979043364e+00 1.7271714831754050e+01 -3.7614337682440336e+01 2 2 2
314 2 3.5431450827059447e+00 1.6450420362769957e+01 -3.7288468510440552e+01 2 2 2
315 2 3.6896588204922081e+00 1.7324571168459268e+01 -3.8578160390985190e+01 2 2 2
316 1 1.5338349111305780e+01 1.9735274540593979e+00 5.0745339854966623e+01 -4 -4 -2
317 2 1.5568636642163359e+01 1.3864844556795661e+00 5.0019945086092697e+01 -4 -4 -2
318 2 1.4947208519520201e+01 1.5090183881985442e+00 5.1479893056284368e+01 -4 -4 -2
319 1 1.0871952554282871e+01 6.7102993633382919e+00 4.4393803652141678e+01 -6 2 -1
320 2 1.0568107326893594e+01 5.8363466788721636e+00 4.4288269530854961e+01 -6 2 -1
321 2 1.0664357710230929e+01 7.1040278126126921e+00 4.3533136624510220e+01 -6 2 -1
322 1 5.7424266040300491e+00 1.8661095892134270e+01 -3.6349625971072705e+01 -1 -1 0
323 2 5.6359182652019824e+00 1.9588221625163754e+01 -3.6053307952980056e+01 -1 -1 0
324 2 4.9803105770252207e+00 1.8353025547362336e+01 -3.6833940446055919e+01 -1 -1 0
325 1 7.8173892456308005e+00 1.4417178755414248e+01 5.0706915626562129e+01 3 0 -1
326 2 7.1327405249127063e+00 1.4349901096906354e+01 5.1389267055723344e+01 3 0 -1
327 2 8.4513024851149883e+00 1.3748971620703715e+01 5.1088912230985564e+01 3 0 -1
328 1 1.6773820690714423e+01 1.1528791449060954e+01 3.4714383949434897e+01 -4 2 -2
329 2 1.6732849543558817e+01 1.2558332749559920e+01 3.4639133707221575e+01 -4 2 -2
330 2 1.7733762588274914e+01 1.1394602084665895e+01 3.4806940657758979e+01 -4 2 -2
331 1 1.6438106269818501e+01 1.8195223640475859e+01 3.4856178297290796e+01 -1 6 -1
332 2 1.5701841452486033e+01 1.8070789369368409e+01 3.4209913390689515e+01 -1 6 -1
333 2 1.5960390916271292e+01 1.8711460670718516e+01 3.5525829238586695e+01 -1 6 -1
334 1 1.6820310599300132e+00 8.3618326077008582e+00 4.8976302266442431e+01 2 6 -1
335 2 2.5967322540080944e+00 8.1819330010558780e+00 4.8782232477413778e+01 2 6 -1
336 2 1.5932020350196938e+00 8.4897474122638421e+00 4.9917898619239672e+01 2 6 -1
337 1 1.5864229313373666e+01 1.4322701474173460e+01 4.2246753392222679e+01 -7 -3 1
338 2 1.5912308602825400e+01 1.5159819848942794e+01 4.2817607469604425e+01 -7 -3 1
339 2 1.6735141303284784e+01 1.4171051505243044e+01 4.1846744174309080e+01 -7 -3 1
340 1 1.1991635852607640e+01 1.2474332386353893e+01 4.0221375196799777e+01 -3 4 -1
341 2 1.1249793650792087e+01 1.2997818680662153e+01 3.9879836122770435e+01 -3 4 -1
342 2 1.2344830975004307e+01 1.2951555179602160e+01 4.1024067999554376e+01 -3 4 -1
343 1 1.7951236395994098e+01 9.9374706320493882e+00 -3.3272633012348741e+01 3 -2 2
344 2 1.8092916253091111e+01 9.0822932897782422e+00 -3.2944171934001012e+01 3 -2 2
345 2 1.8049412455892682e+01 9.8442593262066715e+00 -3.4321265556717947e+01 3 -2 2
346 1 3.3198088530392886e+00 1.0300161442972875e+01 3.4965418765148847e+01 -4 -1 -1
347 2 3.1854882566160336e+00 1.0384647814148321e+01 3.4037226985944500e+01 -4 -1 -1
348 2 3.9353660119554537e+00 1.0934133291024875e+01 3.5250804810590935e+01 -4 -1 -1
349 1 1.4250903725654295e+01 5.0406943496304732e+00 5.3503356705011562e+01 -1 0 0
350 2 1.5013486789152045e+01 5.6204446467160452e+00 5.3764720024554649e+01 -1 0 0
351 2 1.4306052610711207e+01 4.9500212860909931e+00 5.2568302324186483e+01 -1 0 0
352 1 6.2761421966149644e+00 3.0160608460280947e+00 5.3187145983318288e+01 0 3 0
353 2 5.5428250335904261e+00 2.7652182553811810e+00 5.2597868713246946e+01 0 3 0
354 2 6.9949825444867590e+00 2.3257377802619983e+00 5.3021995740811199e+01 0 3 0
355 1 2.7395872095408069e-01 9.3345063835422959e+00 5.8782756736655521e+01 5 -6 0
356 2 1.1822488144205794e+00 9.1254472437840519e+00 5.9187745706286186e+01 5 -6 0
357 2 1.9653775296693468e+01 9.2764786467152778e+00 5.9569222103876740e+01 4 -6 0
358 1 8.8840121680487307e+00 2.5440424476604242e-02 4.3413251070392747e+01 1 0 -1
359 2 9.2627267345285844e+00 5.6825769678407234e-01 4.2718144795765987e+01 1 0 -1
360 2 8.2476755273727314e+00 5.3898964233105029e-01 4.3931836793430513e+01 1 0 -1