LAMMPS (22 Jul 2025 - Update 1)
units real
atom_style full
boundary p p p

pair_style lj/cut/tip4p/long 1 2 1 1 0.1577 9.5

bond_style zero
angle_style zero
pair_modify tail yes

read_data tip4p-ice-225K.data
Reading data file ...
  orthogonal box = (-25 -25 -25) to (25 25 25)
  2 by 4 by 7 MPI processor grid
  reading atoms ...
  12288 atoms
  reading velocities ...
  12288 velocities
  scanning bonds ...
  2 = max bonds/atom
  scanning angles ...
  1 = max angles/atom
  orthogonal box = (-25 -25 -25) to (25 25 25)
  2 by 4 by 7 MPI processor grid
  reading bonds ...
  8192 bonds
  reading angles ...
  4096 angles
Finding 1-2 1-3 1-4 neighbors ...
  special bond factors lj:    0        0        0       
  special bond factors coul:  0        0        0       
     2 = max # of 1-2 neighbors
     1 = max # of 1-3 neighbors
     1 = max # of 1-4 neighbors
     2 = max # of special neighbors
  special bonds CPU = 0.004 seconds
  read_data CPU = 0.158 seconds

print "Initial configuration loaded."
Initial configuration loaded.
reset_timestep 0
print "Applying shear rate: ${gamma}"
Applying shear rate: 5e-6
change_box all triclinic
Changing box ...
  triclinic box = (-25 -25 -25) to (25 25 25) with tilt (0 0 0)
kspace_style pppm/tip4p 1.0e-5

pair_coeff 1 1 0.21084 3.1668 #O-O
pair_coeff * 2 0.0 1.0

bond_coeff 1 0.9572 #O-H
angle_coeff 1 104.52 #H-O-H

group gH2O type 1 2
12288 atoms in group gH2O
group gO type 1
4096 atoms in group gO

neighbor 3.0 bin
neigh_modify delay 0 every 1 check yes

timestep 1.0
fix 1 gH2O shake 1.0e-4 100 10000 b 1 a 1
Finding SHAKE clusters ...
       0 = # of size 2 clusters
       0 = # of size 3 clusters
       0 = # of size 4 clusters
    4096 = # of frozen angles
  find clusters CPU = 0.004 seconds

# # 系统弛豫到平衡态
# fix fnvt_equil all nvt temp ${T} ${T} 100.0
# thermo 1000
# thermo_style custom step temp etotal pe
# thermo_modify flush yes
# run 100000 # 100 ps
# unfix fnvt_equil

# 系统剪切变形
variable shear_rate equal ${gamma}
variable shear_rate equal 5e-6
variable v_lo equal -0.5*ly*v_shear_rate
variable v_hi equal  0.5*ly*v_shear_rate
variable ylo equal -0.5*ly
variable yhi equal  0.5*ly

velocity all ramp vx ${v_lo} ${v_hi} y ${ylo} ${yhi} sum yes units box
velocity all ramp vx -0.000125 ${v_hi} y ${ylo} ${yhi} sum yes units box
velocity all ramp vx -0.000125 0.000125 y ${ylo} ${yhi} sum yes units box
velocity all ramp vx -0.000125 0.000125 y -25 ${yhi} sum yes units box
velocity all ramp vx -0.000125 0.000125 y -25 25 sum yes units box

print "Velocity ramp from y=${ylo} to y=${yhi}"
Velocity ramp from y=-25 to y=25

fix fdeform all deform 1 xy erate ${gamma} remap v
fix fdeform all deform 1 xy erate 5e-6 remap v
fix fnvt all nvt/sllod temp ${T} ${T} 100.0
fix fnvt all nvt/sllod temp 225 ${T} 100.0
fix fnvt all nvt/sllod temp 225 225 100.0

# ------- 加入动量修正项 -------
fix mom_shear all momentum 100 linear 1 1 1 angular

compute tilt all temp/deform
compute 	        layers all chunk/atom bin/1d y center 0.05 units reduced
fix 		        layers_vx all ave/chunk 20 250 5000 layers vx file profile_vx_${gamma}.txt
fix 		        layers_vx all ave/chunk 20 250 5000 layers vx file profile_vx_5e-6.txt
variable L0_x equal lx
variable L0_y equal ly
variable L0_z equal lz

compute p all pressure NULL virial
variable sxy equal -c_p[4] * 1.01325e-4  # convert to GPa


variable dt equal 1.0e-15
variable gammaSI equal ${gamma}*1e15
variable gammaSI equal 5e-6*1e15

variable massAll equal mass(all)/6.022e23
variable volCm3 equal vol*1.0e-24
variable density_sys equal v_massAll/v_volCm3
variable tau_pa equal v_sxy * 1e9
variable gamma_s equal ${gamma} * 1e15
variable gamma_s equal 5e-6 * 1e15
variable viscosity equal v_tau_pa / v_gamma_s

variable strain equal step*${gammaSI}*${dt}
variable strain equal step*5000000000*${dt}
variable strain equal step*5000000000*1e-15

thermo 100
thermo_style custom step temp etotal pe pxy v_sxy v_strain v_viscosity
thermo_modify flush yes


# ---------为低速剪切设置输出轨迹文件---------
# ----- set PPPM reset loop -----
variable strain_reset equal 0.01 # 1% strain reset
variable stepsPerReset equal ceil(${strain_reset}/(${gammaSI}*${dt}))
variable stepsPerReset equal ceil(0.01/(${gammaSI}*${dt}))
variable stepsPerReset equal ceil(0.01/(5000000000*${dt}))
variable stepsPerReset equal ceil(0.01/(5000000000*1e-15))

print "Steps per PPPM reset: ${stepsPerReset}"
Steps per PPPM reset: 2000

variable total_steps equal ceil(${Tpre}/${stepsPerReset})
variable total_steps equal ceil(200000/${stepsPerReset})
variable total_steps equal ceil(200000/2000)
print "Total steps: ${Tpre}"
Total steps: 200000

variable nloop loop ${total_steps}
variable nloop loop 100
label loop_start
run ${stepsPerReset}
run 2000
PPPM initialization ...
  extracting TIP4P info from pair style
  using 12-bit tables for long-range coulomb
  G vector (1/distance) = 0.33357615
  grid = 54 54 54
  stencil order = 5
  estimated absolute RMS force accuracy = 0.002888045
  estimated relative force accuracy = 8.6972618e-06
  using double precision KISS FFT
  3d grid and FFT values/proc = 13464 3024
WARNING: Communication cutoff 0 is shorter than a bond length based estimate of 4.4358. This may lead to errors. (../comm.cpp:743)
WARNING: Increasing communication cutoff to 13.6149 for TIP4P pair style (../pair_lj_cut_tip4p_long.cpp:497)
Generated 0 of 1 mixed pair_coeff terms from geometric mixing rule
Neighbor list info ...
  update: every = 1 steps, delay = 0 steps, check = yes
  max neighbors/atom: 2000, page size: 100000
  master list distance cutoff = 12.8154
  ghost atom cutoff = 13.6149
  binsize = 6.4077, bins = 8 8 8
  1 neighbor lists, perpetual/occasional/extra = 1 0 0
  (1) pair lj/cut/tip4p/long, perpetual
      attributes: half, newton on
      pair build: half/bin/newton/tri
      stencil: half/bin/3d/tri
      bin: standard
SHAKE stats (type/ave/delta/count) on step 0
Bond:   1   0.957201  4.60898e-06     8192
Angle:  1   104.52    0.000486193     4096
Per MPI rank memory allocation (min/avg/max) = 9.597 | 9.738 | 10.06 Mbytes
   Step          Temp          TotEng         PotEng          Pxy           v_sxy         v_strain     v_viscosity  
         0   221.40753     -52541.704     -57947.55       21.170033     -0.0023538166   0             -0.00047076331
       100   228.65529     -52471.729     -58054.534     -253.68246      0.027252616    0.0005         0.0054505233 
       200   227.1936      -52394.363     -57941.48      -202.24921      0.019222609    0.001          0.0038445218 
       300   225.93952     -52337.246     -57853.743      109.36785     -0.010933346    0.0015        -0.0021866693 
       400   225.33355     -52313.261     -57814.963      154.26405     -0.01672862     0.002         -0.003345724  
       500   226.86881     -52357.77      -57896.957     -258.81268      0.023187518    0.0025         0.0046375036 
       600   226.00584     -52441.024     -57959.14      -363.6385       0.036597751    0.003          0.0073195502 
       700   222.1934      -52494.568     -57919.601     -16.482214      0.0012449055   0.0035         0.0002489811 
       800   223.10006     -52475.27      -57922.44      -2.8704841     -0.0038907996   0.004         -0.00077815992
       900   225.33585     -52391.503     -57893.262     -416.37502      0.040725435    0.0045         0.008145087  
      1000   227.51518     -52310.443     -57865.412     -85.699329      0.004439761    0.005          0.00088795221
      1100   224.94902     -52333.687     -57826.001     -48.050633      0.0058154498   0.0055         0.00116309   
      1200   225.45123     -52389.729     -57894.305      31.72887       0.00020090656  0.006          4.0181311e-05
      1300   222.21714     -52448.364     -57873.977     -14.749753     -0.00087030899  0.0065        -0.0001740618 
      1400   224.99934     -52452.06      -57945.602     -448.32989      0.043058589    0.007          0.0086117178 
      1500   226.1796      -52441.489     -57963.849     -199.81421      0.022124972    0.0075         0.0044249943 
      1600   226.16876     -52408.571     -57930.666     -241.99392      0.020453373    0.008          0.0040906746 
      1700   224.9819      -52375.467     -57868.583     -127.99438      0.012343936    0.0085         0.0024687871 
      1800   226.59279     -52373.637     -57906.085      17.465557     -0.0021042696   0.009         -0.00042085391
      1900   223.62875     -52389.913     -57849.991      31.616098     -0.005988381    0.0095        -0.0011976762 
      2000   227.43778     -52373.752     -57926.831     -279.66059      0.028694995    0.01           0.0057389989 
Loop time of 9.04467 on 56 procs for 2000 steps with 12288 atoms

Performance: 19.105 ns/day, 1.256 hours/ns, 221.125 timesteps/s, 2.717 Matom-step/s
99.5% CPU use with 56 MPI tasks x no OpenMP threads

MPI task timing breakdown:
Section |  min time  |  avg time  |  max time  |%varavg| %total
---------------------------------------------------------------
Pair    | 3.6642     | 4.0054     | 4.3191     |   6.7 | 44.28
Bond    | 0.00034531 | 0.0006097  | 0.00088815 |   0.0 |  0.01
Kspace  | 2.5339     | 2.8429     | 3.1558     |   7.7 | 31.43
Neigh   | 0.29438    | 0.29456    | 0.29471    |   0.0 |  3.26
Comm    | 0.31346    | 0.33959    | 0.37051    |   2.3 |  3.75
Output  | 0.001667   | 0.0017052  | 0.0025     |   0.3 |  0.02
Modify  | 1.148      | 1.3812     | 1.5073     |   8.5 | 15.27
Other   |            | 0.1787     |            |       |  1.98

Nlocal:        219.429 ave         234 max         199 min
Histogram: 2 1 3 5 8 8 10 7 8 4
Nghost:        6801.64 ave        6867 max        6721 min
Histogram: 3 2 5 5 6 7 12 6 5 5
Neighs:        94996.8 ave      102938 max       84130 min
Histogram: 2 1 1 7 6 13 8 11 5 2

Total # of neighbors = 5319818
Ave neighs/atom = 432.9279
Ave special neighs/atom = 2
Neighbor list builds = 25
Dangerous builds = 0
kspace_style pppm/tip4p 1.0e-5
next nloop
jump SELF loop_start
run ${stepsPerReset}
run 2000
PPPM initialization ...
  extracting TIP4P info from pair style
  using 12-bit tables for long-range coulomb
  G vector (1/distance) = 0.3333214
  grid = 54 54 54
  stencil order = 5
  estimated absolute RMS force accuracy = 0.0029331278
  estimated relative force accuracy = 8.8330273e-06
  using double precision KISS FFT
  3d grid and FFT values/proc = 13464 3024
Generated 0 of 1 mixed pair_coeff terms from geometric mixing rule
SHAKE stats (type/ave/delta/count) on step 2000
Bond:   1   0.9572    0.000939348     8192
Angle:  1   104.52    0.0867287       4096
Per MPI rank memory allocation (min/avg/max) = 9.599 | 9.869 | 10.06 Mbytes
   Step          Temp          TotEng         PotEng          Pxy           v_sxy         v_strain     v_viscosity  
      2000   227.4386      -52373.738     -57926.837     -269.84594      0.027683626    0.01           0.0055367252 
      2100   225.25958     -52418.619     -57918.515     -111.25687      0.009583047    0.0105         0.0019166094 
      2200   224.74266     -52443.791     -57931.066     -198.42978      0.022037223    0.011          0.0044074445 
      2300   224.8714      -52418.818     -57909.237     -145.58979      0.015982756    0.0115         0.0031965512 
      2400   226.21277     -52379.88      -57903.049     -382.85548      0.037264854    0.012          0.0074529708 
      2500   228.37463     -52374.4       -57950.352     -316.51893      0.032075028    0.0125         0.0064150057 
      2600   224.5424      -52439.703     -57922.088     -237.55543      0.022971858    0.013          0.0045943717 
      2700   223.57001     -52470.336     -57928.98      -39.408154      0.0061320574   0.0135         0.0012264115 
      2800   224.11591     -52413.553     -57885.526     -505.43763      0.050684012    0.014          0.010136802  
      2900   229.8642      -52345.654     -57957.976     -426.54521      0.043024369    0.0145         0.0086048738 
      3000   225.93273     -52332.785     -57849.117     -527.76343      0.052951121    0.015          0.010590224  
      3100   224.88465     -52369.921     -57860.663     -544.40751      0.056035575    0.0155         0.011207115  
      3200   225.70483     -52414.793     -57925.561     -288.22328      0.029035826    0.016          0.0058071653 
      3300   222.71569     -52470.062     -57907.847     -187.81808      0.020893053    0.0165         0.0041786107 
      3400   221.80165     -52469.425     -57884.893     -381.77418      0.039942998    0.017          0.0079885996 
      3500   227.80729     -52414.572     -57976.673     -97.134996      0.011461245    0.0175         0.002292249  
      3600   224.88877     -52382.078     -57872.92      -4.1313293     -0.0011652466   0.018         -0.00023304932
      3700   225.83413     -52372.018     -57885.942     -264.38277      0.029897887    0.0185         0.0059795774 
      3800   223.61926     -52401.126     -57860.972     -460.83495      0.046640981    0.019          0.0093281962 
      3900   224.98269     -52392.153     -57885.289     -495.44093      0.051223231    0.0195         0.010244646  
      4000   229.56918     -52389.061     -57994.18      -655.85725      0.065265447    0.02           0.013053089  
Loop time of 8.94946 on 56 procs for 2000 steps with 12288 atoms

Performance: 19.308 ns/day, 1.243 hours/ns, 223.477 timesteps/s, 2.746 Matom-step/s
99.8% CPU use with 56 MPI tasks x no OpenMP threads

MPI task timing breakdown:
Section |  min time  |  avg time  |  max time  |%varavg| %total
---------------------------------------------------------------
Pair    | 3.6664     | 4.0266     | 4.2715     |   6.8 | 44.99
Bond    | 0.00035043 | 0.00060025 | 0.00089402 |   0.0 |  0.01
Kspace  | 2.5416     | 2.7818     | 3.1261     |   7.8 | 31.08
Neigh   | 0.27436    | 0.27449    | 0.27469    |   0.0 |  3.07
Comm    | 0.30035    | 0.32304    | 0.35239    |   2.3 |  3.61
Output  | 0.0016412  | 0.0016716  | 0.0024666  |   0.3 |  0.02
Modify  | 1.1298     | 1.3719     | 1.496      |   8.5 | 15.33
Other   |            | 0.1694     |            |       |  1.89

Nlocal:        219.429 ave         238 max         196 min
Histogram: 1 1 4 5 7 13 13 5 5 2
Nghost:        6797.46 ave        6869 max        6709 min
Histogram: 1 4 8 7 1 8 11 4 6 6
Neighs:        95022.9 ave      103598 max       82592 min
Histogram: 1 1 3 3 10 5 17 9 6 1

Total # of neighbors = 5321281
Ave neighs/atom = 433.04696
Ave special neighs/atom = 2
Neighbor list builds = 23
Dangerous builds = 0
kspace_style pppm/tip4p 1.0e-5
next nloop
jump SELF loop_start
run ${stepsPerReset}
run 2000
PPPM initialization ...
  extracting TIP4P info from pair style
  using 12-bit tables for long-range coulomb
  G vector (1/distance) = 0.33304256
  grid = 54 54 54
  stencil order = 5
  estimated absolute RMS force accuracy = 0.0029831894
  estimated relative force accuracy = 8.9837863e-06
  using double precision KISS FFT
  3d grid and FFT values/proc = 13464 3024
Generated 0 of 1 mixed pair_coeff terms from geometric mixing rule
SHAKE stats (type/ave/delta/count) on step 4000
Bond:   1   0.9572    0.000922302     8192
Angle:  1   104.52    0.079283        4096
Per MPI rank memory allocation (min/avg/max) = 9.599 | 9.903 | 10.06 Mbytes
   Step          Temp          TotEng         PotEng          Pxy           v_sxy         v_strain     v_viscosity  
      4000   229.57083     -52388.958     -57994.117     -646.28368      0.06427043     0.02           0.012854086  
      4100   225.27383     -52431.062     -57931.306     -414.14833      0.041958558    0.0205         0.0083917116 
      4200   224.46052     -52434.898     -57915.285     -437.04128      0.041803188    0.021          0.0083606376 
      4300   227.03902     -52415.632     -57958.975     -629.74426      0.064289685    0.0215         0.012857937  
      4400   225.52993     -52395.959     -57902.456     -588.93194      0.057777418    0.022          0.011555484  
      4500   225.27111     -52375.984     -57876.161     -408.96103      0.041053088    0.0225         0.0082106175 
      4600   226.37        -52376.305     -57903.313     -564.50374      0.056524375    0.023          0.011304875  
      4700   224.87259     -52384.498     -57874.946     -496.17665      0.051195516    0.0235         0.010239103  
      4800   226.00347     -52420.381     -57938.44      -565.7402       0.058237071    0.024          0.011647414  
      4900   222.0415      -52499.072     -57920.396     -276.76606      0.02739618     0.0245         0.0054792361 
      5000   222.30505     -52516.61      -57944.369     -359.22594      0.037851433    0.025          0.0075702867 
      5100   224.09186     -52444.999     -57916.385     -120.78596      0.014480653    0.0255         0.0028961307 
      5200   224.39404     -52352.725     -57831.488     -316.50332      0.03259544     0.026          0.006519088  
      5300   226.01076     -52304.611     -57822.848     -512.47015      0.049312906    0.0265         0.0098625812 
      5400   228.23056     -52329.239     -57901.674     -601.68096      0.061221288    0.027          0.012244258  
      5500   222.10634     -52417.102     -57840.009     -232.21302      0.02548113     0.0275         0.0050962259 
      5600   224.26431     -52492.21      -57967.806     -296.00796      0.027216379    0.028          0.0054432757 
      5700   223.77523     -52472.65      -57936.305     -573.39533      0.055467977    0.0285         0.011093595  
      5800   225.58868     -52384.354     -57892.285     -436.68215      0.041924222    0.029          0.0083848445 
      5900   225.34306     -52326.124     -57828.059     -913.97375      0.095306983    0.0295         0.019061397  
      6000   227.78411     -52330.677     -57892.211     -471.43066      0.048316291    0.03           0.0096632582 
Loop time of 8.99429 on 56 procs for 2000 steps with 12288 atoms

Performance: 19.212 ns/day, 1.249 hours/ns, 222.363 timesteps/s, 2.732 Matom-step/s
99.7% CPU use with 56 MPI tasks x no OpenMP threads

MPI task timing breakdown:
Section |  min time  |  avg time  |  max time  |%varavg| %total
---------------------------------------------------------------
Pair    | 3.7395     | 4.0292     | 4.2967     |   6.5 | 44.80
Bond    | 0.00037394 | 0.00060862 | 0.0009317  |   0.0 |  0.01
Kspace  | 2.5382     | 2.8091     | 3.0895     |   7.4 | 31.23
Neigh   | 0.28554    | 0.28568    | 0.28592    |   0.0 |  3.18
Comm    | 0.30027    | 0.32068    | 0.35233    |   2.3 |  3.57
Output  | 0.0023443  | 0.0023739  | 0.0024338  |   0.0 |  0.03
Modify  | 1.1293     | 1.3727     | 1.5061     |   8.5 | 15.26
Other   |            | 0.1739     |            |       |  1.93

Nlocal:        219.429 ave         234 max         200 min
Histogram: 3 2 3 4 7 11 6 10 6 4
Nghost:        6797.02 ave        6869 max        6741 min
Histogram: 4 5 8 13 5 6 4 6 3 2
Neighs:        95024.5 ave      102232 max       85994 min
Histogram: 4 1 2 8 7 6 12 7 3 6

Total # of neighbors = 5321371
Ave neighs/atom = 433.05428
Ave special neighs/atom = 2
Neighbor list builds = 25
Dangerous builds = 0
kspace_style pppm/tip4p 1.0e-5
next nloop
jump SELF loop_start
run ${stepsPerReset}
run 2000
PPPM initialization ...
  extracting TIP4P info from pair style
  using 12-bit tables for long-range coulomb
  G vector (1/distance) = 0.33273804
  grid = 54 54 54
  stencil order = 5
  estimated absolute RMS force accuracy = 0.0030387296
  estimated relative force accuracy = 9.1510439e-06
  using double precision KISS FFT
  3d grid and FFT values/proc = 13464 3024
Generated 0 of 1 mixed pair_coeff terms from geometric mixing rule
SHAKE stats (type/ave/delta/count) on step 6000
Bond:   1   0.9572    0.00096134      8192
Angle:  1   104.52    0.0644274       4096
Per MPI rank memory allocation (min/avg/max) = 9.599 | 9.91 | 10.06 Mbytes
   Step          Temp          TotEng         PotEng          Pxy           v_sxy         v_strain     v_viscosity  
      6000   227.78342     -52330.685     -57892.203     -460.05412      0.047163251    0.03           0.0094326503 
      6100   224.58286     -52412.328     -57895.701     -643.76362      0.060095353    0.0305         0.012019071  
      6200   223.16404     -52516.689     -57965.421     -454.56425      0.046116011    0.031          0.0092232022 
      6300   223.83432     -52543.064     -58008.161     -352.93697      0.033513023    0.0315         0.0067026046 
      6400   219.50112     -52496.152     -57855.451     -826.26977      0.081626265    0.032          0.016325253  
      6500   225.1461      -52390.808     -57887.933     -642.37224      0.063855383    0.0325         0.012771077  
      6600   227.05422     -52342         -57885.714     -412.58089      0.042226714    0.033          0.0084453428 
      6700   222.0748      -52349.751     -57771.888     -462.88386      0.045461312    0.0335         0.0090922624 
      6800   226.15198     -52360.048     -57881.733     -855.63795      0.082743672    0.034          0.016548734  
      6900   223.00461     -52414.23      -57859.07      -728.75329      0.069197922    0.0345         0.013839584  
      7000   225.94981     -52452.329     -57969.078     -702.36543      0.068222008    0.035          0.013644402  
      7100   223.5815      -52488.666     -57947.59      -785.02899      0.083213474    0.0355         0.016642695  
      7200   221.74781     -52455.302     -57869.455     -479.83829      0.045802695    0.036          0.0091605391 
      7300   226.91619     -52359.693     -57900.037     -817.3823       0.080228071    0.0365         0.016045614  
      7400   225.95941     -52333.226     -57850.21      -851.59551      0.083479417    0.037          0.016695883  
      7500   222.52313     -52336.357     -57769.44      -1075.4923      0.10628631     0.0375         0.021257261  
      7600   224.50266     -52322.525     -57803.941     -1031.7138      0.1052552      0.038          0.021051039  
      7700   223.59817     -52368.57      -57827.901     -852.92342      0.084321622    0.0385         0.016864324  
      7800   223.47216     -52437.456     -57893.711     -951.51029      0.097305362    0.039          0.019461072  
      7900   224.77173     -52447.054     -57935.039     -831.85981      0.08193668     0.0395         0.016387336  
      8000   223.37006     -52438.636     -57892.398     -641.28605      0.063336051    0.04           0.01266721   
Loop time of 9.0188 on 56 procs for 2000 steps with 12288 atoms

Performance: 19.160 ns/day, 1.253 hours/ns, 221.759 timesteps/s, 2.725 Matom-step/s
99.7% CPU use with 56 MPI tasks x no OpenMP threads

MPI task timing breakdown:
Section |  min time  |  avg time  |  max time  |%varavg| %total
---------------------------------------------------------------
Pair    | 3.791      | 4.0329     | 4.327      |   6.2 | 44.72
Bond    | 0.00036105 | 0.00059608 | 0.00085849 |   0.0 |  0.01
Kspace  | 2.5597     | 2.8398     | 3.0692     |   7.1 | 31.49
Neigh   | 0.2674     | 0.26756    | 0.26776    |   0.0 |  2.97
Comm    | 0.29904    | 0.32301    | 0.35123    |   2.3 |  3.58
Output  | 0.0016046  | 0.0016479  | 0.0024804  |   0.3 |  0.02
Modify  | 1.1271     | 1.3728     | 1.5097     |   8.5 | 15.22
Other   |            | 0.1805     |            |       |  2.00

Nlocal:        219.429 ave         235 max         203 min
Histogram: 1 6 4 7 6 12 7 6 5 2
Nghost:        6795.64 ave        6858 max        6721 min
Histogram: 2 0 8 7 4 12 7 6 8 2
Neighs:        95019.3 ave      102297 max       88042 min
Histogram: 5 3 5 8 5 11 6 7 4 2

Total # of neighbors = 5321081
Ave neighs/atom = 433.03068
Ave special neighs/atom = 2
Neighbor list builds = 24
Dangerous builds = 0
kspace_style pppm/tip4p 1.0e-5
next nloop
jump SELF loop_start
run ${stepsPerReset}
run 2000
PPPM initialization ...
  extracting TIP4P info from pair style
  using 12-bit tables for long-range coulomb
  G vector (1/distance) = 0.33240633
  grid = 54 54 54
  stencil order = 5
  estimated absolute RMS force accuracy = 0.0031002847
  estimated relative force accuracy = 9.3364151e-06
  using double precision KISS FFT
  3d grid and FFT values/proc = 13464 3024
Generated 0 of 1 mixed pair_coeff terms from geometric mixing rule
SHAKE stats (type/ave/delta/count) on step 8000
Bond:   1   0.9572    0.000977988     8192
Angle:  1   104.52    0.0857295       4096
Per MPI rank memory allocation (min/avg/max) = 9.599 | 9.91 | 10.06 Mbytes
   Step          Temp          TotEng         PotEng          Pxy           v_sxy         v_strain     v_viscosity  
      8000   223.37544     -52438.463     -57892.356     -628.88573      0.062064214    0.04           0.012412843  
      8100   223.27        -52395.71      -57847.029     -794.83946      0.077973361    0.0405         0.015594672  
      8200   224.22455     -52349.01      -57823.635     -726.88369      0.073211037    0.041          0.014642207  
      8300   228.51295     -52304.969     -57884.299     -807.52458      0.081603327    0.0415         0.016320665  
      8400   227.60693     -52328.568     -57885.777     -665.178        0.063762435    0.042          0.012752487  
      8500   223.86908     -52452.665     -57918.612     -853.56216      0.085339819    0.0425         0.017067964  
      8600   221.53103     -52560.873     -57969.733     -720.99082      0.073709188    0.043          0.014741838  
      8700   223.74994     -52532.052     -57995.089     -811.09962      0.081558399    0.0435         0.01631168   
      8800   221.86144     -52406.077     -57823.004     -988.18648      0.10244213     0.044          0.020488427  
      8900   224.68727     -52266.723     -57752.646     -890.15758      0.089451482    0.0445         0.017890296  
      9000   227.87065     -52214.966     -57778.614     -751.40103      0.074262073    0.045          0.014852415  
      9100   226.953       -52302.408     -57843.65      -880.96409      0.087416467    0.0455         0.017483293  
      9200   223.56268     -52451.739     -57910.204     -670.73131      0.066607444    0.046          0.013321489  
      9300   222.24232     -52556.517     -57982.744     -726.36087      0.071105151    0.0465         0.01422103   
      9400   220.83814     -52513.849     -57905.792     -988.94746      0.098399533    0.047          0.019679907  
      9500   226.09395     -52328.762     -57849.031     -596.83518      0.062922089    0.0475         0.012584418  
      9600   228.598       -52240.434     -57821.84      -774.65941      0.078413172    0.048          0.015682634  
      9700   227.76973     -52290.692     -57851.876     -683.54368      0.066961987    0.0485         0.013392397  
      9800   225.86401     -52404.481     -57919.135     -880.43553      0.086399439    0.049          0.017279888  
      9900   223.84041     -52501.514     -57966.76      -946.33753      0.095701546    0.0495         0.019140309  
SHAKE stats (type/ave/delta/count) on step 10000
Bond:   1   0.9572    0.000483082     8192
Angle:  1   104.52    0.0319076       4096
     10000   222.58438     -52480.282     -57914.862     -964.63317      0.10073721     0.05           0.020147443  
Loop time of 8.9828 on 56 procs for 2000 steps with 12288 atoms

Performance: 19.237 ns/day, 1.248 hours/ns, 222.648 timesteps/s, 2.736 Matom-step/s
99.8% CPU use with 56 MPI tasks x no OpenMP threads

MPI task timing breakdown:
Section |  min time  |  avg time  |  max time  |%varavg| %total
---------------------------------------------------------------
Pair    | 3.8446     | 4.0345     | 4.2616     |   5.6 | 44.91
Bond    | 0.00034295 | 0.00060292 | 0.00089478 |   0.0 |  0.01
Kspace  | 2.57       | 2.7872     | 2.9668     |   6.5 | 31.03
Neigh   | 0.28871    | 0.28889    | 0.28909    |   0.0 |  3.22
Comm    | 0.29594    | 0.32016    | 0.35217    |   2.2 |  3.56
Output  | 0.0016423  | 0.0016695  | 0.0023078  |   0.2 |  0.02
Modify  | 1.1318     | 1.3739     | 1.5048     |   8.5 | 15.30
Other   |            | 0.1759     |            |       |  1.96

Nlocal:        219.429 ave         233 max         204 min
Histogram: 3 3 7 2 9 9 7 8 3 5
Nghost:        6798.45 ave        6856 max        6759 min
Histogram: 4 8 11 10 5 5 7 1 2 3
Neighs:        95026.1 ave      101621 max       87883 min
Histogram: 5 2 6 4 8 8 12 3 4 4

Total # of neighbors = 5321463
Ave neighs/atom = 433.06177
Ave special neighs/atom = 2
Neighbor list builds = 26
Dangerous builds = 0
kspace_style pppm/tip4p 1.0e-5
next nloop
jump SELF loop_start
run ${stepsPerReset}
run 2000
PPPM initialization ...
  extracting TIP4P info from pair style
  using 12-bit tables for long-range coulomb
  G vector (1/distance) = 0.33204596
  grid = 54 54 54
  stencil order = 5
  estimated absolute RMS force accuracy = 0.0031684281
  estimated relative force accuracy = 9.541627e-06
  using double precision KISS FFT
  3d grid and FFT values/proc = 13464 3024
Generated 0 of 1 mixed pair_coeff terms from geometric mixing rule
SHAKE stats (type/ave/delta/count) on step 10000
Bond:   1   0.9572    0.000967182     8192
Angle:  1   104.52    0.0638799       4096
Per MPI rank memory allocation (min/avg/max) = 9.599 | 9.924 | 10.06 Mbytes
   Step          Temp          TotEng         PotEng          Pxy           v_sxy         v_strain     v_viscosity  
     10000   222.58459     -52480.273     -57914.857     -953.33977      0.099569806    0.05           0.019913961  
     10100   226.96754     -52360.426     -57902.024     -794.67523      0.081496673    0.0505         0.016299335  
     10200   225.16949     -52278.808     -57776.505     -845.36169      0.086198801    0.051          0.01723976   
     10300   225.11308     -52272.075     -57768.394     -590.79627      0.058069381    0.0515         0.011613876  
     10400   222.78135     -52362.123     -57801.511     -728.49103      0.072004288    0.052          0.014400858  
     10500   222.40043     -52437.399     -57867.487     -972.15406      0.095806356    0.0525         0.019161271  
     10600   224.61931     -52422.986     -57907.25      -1081.7823      0.10498261     0.053          0.020996523  
     10700   225.72766     -52374.071     -57885.396     -959.74283      0.092971714    0.0535         0.018594343  
     10800   226.77082     -52383.156     -57919.95      -763.38869      0.076285859    0.054          0.015257172  
     10900   223.49216     -52366.102     -57822.846     -708.6304       0.074212787    0.0545         0.014842557  
     11000   228.03259     -52343.053     -57910.655     -921.23921      0.092077686    0.055          0.018415537  
     11100   226.36343     -52338.106     -57864.954     -987.29126      0.10269394     0.0555         0.020538789  
     11200   223.11167     -52346.53      -57793.984     -914.50227      0.08964923     0.056          0.017929846  
     11300   226.86814     -52338.631     -57877.802     -1087.114       0.10813824     0.0565         0.021627647  
     11400   225.1135      -52359.892     -57856.221     -853.49526      0.084811049    0.057          0.01696221   
     11500   226.13403     -52404.142     -57925.388     -703.58332      0.074241438    0.0575         0.014848288  
     11600   223.86633     -52419.54      -57885.419     -1218.9953      0.12132632     0.058          0.024265265  
     11700   225.07998     -52425.3       -57920.811     -1052.5894      0.1040261      0.0585         0.02080522   
     11800   223.23925     -52379.653     -57830.221     -723.43988      0.07071122     0.059          0.014142244  
     11900   229.25251     -52275.518     -57872.905     -884.55861      0.086291053    0.0595         0.017258211  
     12000   225.91062     -52275.395     -57791.187     -698.62051      0.068487887    0.06           0.013697577  
Loop time of 8.99379 on 56 procs for 2000 steps with 12288 atoms

Performance: 19.213 ns/day, 1.249 hours/ns, 222.376 timesteps/s, 2.733 Matom-step/s
99.8% CPU use with 56 MPI tasks x no OpenMP threads

MPI task timing breakdown:
Section |  min time  |  avg time  |  max time  |%varavg| %total
---------------------------------------------------------------
Pair    | 3.7991     | 4.0319     | 4.291      |   5.7 | 44.83
Bond    | 0.00037454 | 0.00060772 | 0.00088697 |   0.0 |  0.01
Kspace  | 2.5417     | 2.7959     | 2.994      |   6.6 | 31.09
Neigh   | 0.29192    | 0.2921     | 0.2923     |   0.0 |  3.25
Comm    | 0.29937    | 0.32024    | 0.35554    |   2.5 |  3.56
Output  | 0.001676   | 0.0017056  | 0.0024281  |   0.2 |  0.02
Modify  | 1.13       | 1.372      | 1.5093     |   8.6 | 15.26
Other   |            | 0.1794     |            |       |  1.99

Nlocal:        219.429 ave         234 max         206 min
Histogram: 3 4 8 9 9 4 8 4 4 3
Nghost:        6804.61 ave        6868 max        6752 min
Histogram: 5 5 7 9 5 9 4 7 3 2
Neighs:        94997.5 ave      101862 max       87249 min
Histogram: 1 3 3 11 8 10 6 6 4 4

Total # of neighbors = 5319858
Ave neighs/atom = 432.93115
Ave special neighs/atom = 2
Neighbor list builds = 26
Dangerous builds = 0
kspace_style pppm/tip4p 1.0e-5
next nloop
jump SELF loop_start
run ${stepsPerReset}
run 2000
PPPM initialization ...
  extracting TIP4P info from pair style
  using 12-bit tables for long-range coulomb
  G vector (1/distance) = 0.3316556
  grid = 54 54 54
  stencil order = 5
  estimated absolute RMS force accuracy = 0.0032437706
  estimated relative force accuracy = 9.7685189e-06
  using double precision KISS FFT
  3d grid and FFT values/proc = 13464 3024
Generated 0 of 1 mixed pair_coeff terms from geometric mixing rule
SHAKE stats (type/ave/delta/count) on step 12000
Bond:   1   0.9572    0.000915492     8192
Angle:  1   104.52    0.0601395       4096
Per MPI rank memory allocation (min/avg/max) = 9.599 | 9.931 | 10.06 Mbytes
   Step          Temp          TotEng         PotEng          Pxy           v_sxy         v_strain     v_viscosity  
     12000   225.90736     -52275.47      -57791.182     -687.7838       0.067374191    0.06           0.013474838  
     12100   226.145       -52343.998     -57865.512     -905.77335      0.090452791    0.0605         0.018090558  
     12200   224.46789     -52405.964     -57886.53      -885.8592       0.090381499    0.061          0.0180763    
     12300   223.41932     -52414.223     -57869.187     -1049.9302      0.1035427      0.0615         0.02070854   
     12400   222.91922     -52354.568     -57797.322     -941.8276       0.094697466    0.062          0.018939493  
     12500   229.49653     -52252.591     -57855.935     -775.04065      0.075820793    0.0625         0.015164159  
     12600   226.0314      -52264.085     -57782.826     -1210.1222      0.12145993     0.063          0.024291985  
     12700   225.43697     -52361.606     -57865.833     -925.4068       0.093311845    0.0635         0.018662369  
     12800   222.38124     -52437.57      -57867.19      -1111.102       0.11137624     0.064          0.022275248  
     12900   223.95048     -52445.497     -57913.43      -886.65482      0.089394531    0.0645         0.017878906  
     13000   223.34049     -52384.655     -57837.695     -1138.8722      0.11371969     0.065          0.022743939  
     13100   224.88184     -52292.097     -57782.771     -907.68577      0.091669104    0.0655         0.018333821  
     13200   225.68893     -52225.596     -57735.975     -982.00682      0.099621525    0.066          0.019924305  
     13300   227.86275     -52190.808     -57754.263     -960.34698      0.094670553    0.0665         0.018934111  
     13400   227.65321     -52281.188     -57839.527     -1049.7471      0.1032191      0.067          0.02064382   
     13500   221.84265     -52419.109     -57835.578     -1015.8367      0.10368394     0.0675         0.020736787  
     13600   223.55146     -52439.161     -57897.352     -793.80376      0.07684591     0.068          0.015369182  
     13700   222.8603      -52366.933     -57808.249     -1081.6623      0.10981202     0.0685         0.021962404  
     13800   227.85506     -52237.288     -57800.555     -1013.6555      0.10045371     0.069          0.020090742  
     13900   224.07946     -52187.446     -57658.528     -962.45684      0.097163969    0.0695         0.019432794  
     14000   227.07804     -52214.215     -57758.51      -869.93811      0.088983202    0.07           0.01779664   
Loop time of 8.91054 on 56 procs for 2000 steps with 12288 atoms

Performance: 19.393 ns/day, 1.238 hours/ns, 224.453 timesteps/s, 2.758 Matom-step/s
99.8% CPU use with 56 MPI tasks x no OpenMP threads

MPI task timing breakdown:
Section |  min time  |  avg time  |  max time  |%varavg| %total
---------------------------------------------------------------
Pair    | 3.752      | 4.0277     | 4.2729     |   5.6 | 45.20
Bond    | 0.00036571 | 0.00060704 | 0.0009234  |   0.0 |  0.01
Kspace  | 2.5416     | 2.7775     | 3.0211     |   6.4 | 31.17
Neigh   | 0.23608    | 0.23618    | 0.23632    |   0.0 |  2.65
Comm    | 0.29678    | 0.31774    | 0.34939    |   2.2 |  3.57
Output  | 0.0016279  | 0.0016613  | 0.0023867  |   0.2 |  0.02
Modify  | 1.1222     | 1.3725     | 1.5125     |   8.6 | 15.40
Other   |            | 0.1767     |            |       |  1.98

Nlocal:        219.429 ave         233 max         204 min
Histogram: 2 1 5 8 11 5 13 4 5 2
Nghost:        6796.16 ave        6856 max        6729 min
Histogram: 3 3 9 3 5 7 12 6 5 3
Neighs:        95010.6 ave      100736 max       86816 min
Histogram: 2 1 4 3 11 8 6 11 4 6

Total # of neighbors = 5320596
Ave neighs/atom = 432.99121
Ave special neighs/atom = 2
Neighbor list builds = 21
Dangerous builds = 0
kspace_style pppm/tip4p 1.0e-5
next nloop
jump SELF loop_start
run ${stepsPerReset}
run 2000
PPPM initialization ...
  extracting TIP4P info from pair style
  using 12-bit tables for long-range coulomb
  G vector (1/distance) = 0.33123407
  grid = 54 54 54
  stencil order = 5
  estimated absolute RMS force accuracy = 0.0033269609
  estimated relative force accuracy = 1.0019044e-05
  using double precision KISS FFT
  3d grid and FFT values/proc = 13464 3024
Generated 0 of 1 mixed pair_coeff terms from geometric mixing rule
SHAKE stats (type/ave/delta/count) on step 14000
Bond:   1   0.9572    0.000960228     8192
Angle:  1   104.52    0.0610213       4096
Per MPI rank memory allocation (min/avg/max) = 9.599 | 9.931 | 10.06 Mbytes
   Step          Temp          TotEng         PotEng          Pxy           v_sxy         v_strain     v_viscosity  
     14000   227.07223     -52214.373     -57758.527     -858.22141      0.087781726    0.07           0.017556345  
     14100   224.74501     -52310.487     -57797.819     -1335.0352      0.13505785     0.0705         0.02701157   
     14200   223.66155     -52352.072     -57812.952     -1145.0207      0.11678007     0.071          0.023356014  
     14300   225.95317     -52295.902     -57812.732     -1110.1986      0.11025257     0.0715         0.022050514  
     14400   226.31681     -52250.462     -57776.171     -792.84483      0.07836029     0.072          0.015672058  
     14500   222.94289     -52275.941     -57719.274     -994.94605      0.099437222    0.0725         0.019887444  
     14600   225.00422     -52285.349     -57779.011     -1158.7955      0.1174492      0.073          0.023489839  
     14700   224.15931     -52288.481     -57761.513     -1154.4489      0.11551028     0.0735         0.023102056  
     14800   223.30216     -52257.911     -57710.015     -1218.3623      0.12128932     0.074          0.024257864  
     14900   225.12103     -52239.282     -57735.796     -771.66963      0.079457544    0.0745         0.015891509  
     15000   222.25915     -52293.562     -57720.201     -769.16878      0.070795012    0.075          0.014159002  
     15100   223.23309     -52325.967     -57776.385     -1254.7624      0.12433415     0.0755         0.02486683   
     15200   223.60544     -52342.62      -57802.129     -873.8806       0.084341195    0.076          0.016868239  
     15300   225.29709     -52315.858     -57816.67      -1104.655       0.11123346     0.0765         0.022246692  
     15400   223.48037     -52266.978     -57723.433     -1200.5379      0.11645806     0.077          0.023291612  
     15500   226.77119     -52228.508     -57765.311     -1289.8561      0.1279         0.0775         0.025580001  
     15600   225.04853     -52234.883     -57729.627     -1207.3264      0.12095655     0.078          0.024191311  
     15700   226.58186     -52287.554     -57819.735     -990.09495      0.098332914    0.0785         0.019666583  
     15800   222.62444     -52367.184     -57802.742     -1176.0064      0.11847655     0.079          0.02369531   
     15900   224.28509     -52413.889     -57889.992     -1295.5694      0.12819983     0.0795         0.025639966  
     16000   222.43699     -52377.098     -57808.078     -1487.6133      0.15102574     0.08           0.030205147  
Loop time of 8.94515 on 56 procs for 2000 steps with 12288 atoms

Performance: 19.318 ns/day, 1.242 hours/ns, 223.585 timesteps/s, 2.747 Matom-step/s
99.8% CPU use with 56 MPI tasks x no OpenMP threads

MPI task timing breakdown:
Section |  min time  |  avg time  |  max time  |%varavg| %total
---------------------------------------------------------------
Pair    | 3.8016     | 4.0317     | 4.2765     |   5.8 | 45.07
Bond    | 0.00041755 | 0.00061135 | 0.0009297  |   0.0 |  0.01
Kspace  | 2.5124     | 2.7717     | 2.9765     |   6.8 | 30.99
Neigh   | 0.26167    | 0.26181    | 0.26199    |   0.0 |  2.93
Comm    | 0.30087    | 0.31868    | 0.35085    |   2.3 |  3.56
Output  | 0.0017507  | 0.0017793  | 0.0024172  |   0.2 |  0.02
Modify  | 1.129      | 1.3775     | 1.5209     |   8.5 | 15.40
Other   |            | 0.1814     |            |       |  2.03

Nlocal:        219.429 ave         234 max         207 min
Histogram: 3 6 5 5 14 10 2 6 4 1
Nghost:        6810.93 ave        6870 max        6760 min
Histogram: 3 4 6 13 5 8 8 4 3 2
Neighs:        95027.9 ave      101870 max       88199 min
Histogram: 2 5 5 5 13 5 10 4 3 4

Total # of neighbors = 5321560
Ave neighs/atom = 433.06966
Ave special neighs/atom = 2
Neighbor list builds = 23
Dangerous builds = 0
kspace_style pppm/tip4p 1.0e-5
next nloop
jump SELF loop_start
run ${stepsPerReset}
run 2000
PPPM initialization ...
  extracting TIP4P info from pair style
  using 12-bit tables for long-range coulomb
  G vector (1/distance) = 0.33423203
  grid = 54 60 54
  stencil order = 5
  estimated absolute RMS force accuracy = 0.0027747747
  estimated relative force accuracy = 8.3561516e-06
  using double precision KISS FFT
  3d grid and FFT values/proc = 14688 3456
Generated 0 of 1 mixed pair_coeff terms from geometric mixing rule
SHAKE stats (type/ave/delta/count) on step 16000
Bond:   1   0.9572    0.000978242     8192
Angle:  1   104.52    0.081299        4096
Per MPI rank memory allocation (min/avg/max) = 9.68 | 10.03 | 10.16 Mbytes
   Step          Temp          TotEng         PotEng          Pxy           v_sxy         v_strain     v_viscosity  
     16000   222.44109     -52377.04      -57808.12      -1475.9789      0.14982068     0.08           0.029964136  
     16100   224.15892     -52283.178     -57756.2       -940.11926      0.095543121    0.0805         0.019108624  
     16200   225.72866     -52215.756     -57727.105     -1270.967       0.12339915     0.081          0.024679831  
     16300   226.63383     -52214.727     -57748.177     -1404.0838      0.13883934     0.0815         0.027767869  
     16400   224.87462     -52276.853     -57767.35      -1392.0318      0.1400531      0.082          0.028010619  
     16500   224.15149     -52317.528     -57790.37      -1459.0062      0.14898221     0.0825         0.029796442  
     16600   224.38782     -52310.647     -57789.258     -1234.9332      0.12306873     0.083          0.024613746  
     16700   228.07531     -52257.328     -57825.973     -1116.2209      0.11319964     0.0835         0.022639928  
     16800   225.96205     -52248.402     -57765.45      -1104.5038      0.10967234     0.084          0.021934469  
     16900   222.71526     -52239.866     -57677.641     -816.67376      0.081951532    0.0845         0.016390306  
     17000   227.03392     -52226.717     -57769.935     -1167.4916      0.11671576     0.085          0.023343152  
     17100   224.84628     -52277.404     -57767.21      -663.11291      0.068127187    0.0855         0.013625437  
     17200   224.47784     -52332.75      -57813.56      -1107.9114      0.1142762      0.086          0.02285524   
     17300   224.80273     -52342.083     -57830.825     -1346.1083      0.13368996     0.0865         0.026737992  
     17400   224.52749     -52325.53      -57807.552     -1343.4242      0.13537887     0.087          0.027075774  
     17500   227.63505     -52271.6       -57829.496     -1259.0328      0.12570895     0.0875         0.025141789  
     17600   222.54378     -52267.258     -57700.846     -1267.8433      0.12652728     0.088          0.025305457  
     17700   226.27155     -52230.779     -57755.383     -1312.8299      0.13233811     0.0885         0.026467622  
     17800   229.39103     -52220.832     -57821.601     -748.01864      0.076580258    0.089          0.015316052  
     17900   223.16068     -52296.311     -57744.961     -941.34413      0.096211691    0.0895         0.019242338  
     18000   223.34558     -52325.558     -57778.722     -980.08785      0.098862409    0.09           0.019772482  
Loop time of 9.40718 on 56 procs for 2000 steps with 12288 atoms

Performance: 18.369 ns/day, 1.307 hours/ns, 212.604 timesteps/s, 2.612 Matom-step/s
99.7% CPU use with 56 MPI tasks x no OpenMP threads

MPI task timing breakdown:
Section |  min time  |  avg time  |  max time  |%varavg| %total
---------------------------------------------------------------
Pair    | 3.8188     | 4.0443     | 4.2894     |   5.6 | 42.99
Bond    | 0.00038638 | 0.00065322 | 0.0009802  |   0.0 |  0.01
Kspace  | 2.7633     | 3.015      | 3.2292     |   6.2 | 32.05
Neigh   | 0.2725     | 0.2726     | 0.27275    |   0.0 |  2.90
Comm    | 0.31036    | 0.32851    | 0.36154    |   1.9 |  3.49
Output  | 0.0016092  | 0.0016461  | 0.002404   |   0.3 |  0.02
Modify  | 1.2764     | 1.5214     | 1.6965     |   9.4 | 16.17
Other   |            | 0.2231     |            |       |  2.37

Nlocal:        219.429 ave         235 max         206 min
Histogram: 5 1 9 5 11 9 9 4 2 1
Nghost:        6808.29 ave        6853 max        6755 min
Histogram: 3 3 2 2 14 8 10 8 4 2
Neighs:        95028.5 ave      101937 max       87968 min
Histogram: 4 1 5 7 7 12 7 10 2 1

Total # of neighbors = 5321598
Ave neighs/atom = 433.07275
Ave special neighs/atom = 2
Neighbor list builds = 24
Dangerous builds = 0
kspace_style pppm/tip4p 1.0e-5
next nloop
jump SELF loop_start
run ${stepsPerReset}
run 2000
PPPM initialization ...
  extracting TIP4P info from pair style
  using 12-bit tables for long-range coulomb
  G vector (1/distance) = 0.33404204
  grid = 54 60 54
  stencil order = 5
  estimated absolute RMS force accuracy = 0.0028071772
  estimated relative force accuracy = 8.4537307e-06
  using double precision KISS FFT
  3d grid and FFT values/proc = 14688 3456
Generated 0 of 1 mixed pair_coeff terms from geometric mixing rule
SHAKE stats (type/ave/delta/count) on step 18000
Bond:   1   0.9572    0.00099131      8192
Angle:  1   104.52    0.0615724       4096
Per MPI rank memory allocation (min/avg/max) = 9.68 | 10.04 | 10.16 Mbytes
   Step          Temp          TotEng         PotEng          Pxy           v_sxy         v_strain     v_viscosity  
     18000   223.34916     -52325.449     -57778.701     -968.01571      0.097614713    0.09           0.019522943  
     18100   225.42198     -52266.919     -57770.781     -924.65063      0.091792082    0.0905         0.018358416  
     18200   224.25057     -52211.488     -57686.748     -884.2593       0.086482861    0.091          0.017296572  
     18300   225.58052     -52227.111     -57734.843     -1298.3843      0.12554138     0.0915         0.025108276  
     18400   222.41032     -52315.94      -57746.269     -1226.0059      0.11924709     0.092          0.023849418  
     18500   226.74159     -52324.346     -57860.427     -1301.3715      0.12676367     0.0925         0.025352735  
     18600   227.3915      -52311.879     -57863.828     -1408.8433      0.14072087     0.093          0.028144175  
     18700   222.32418     -52321.306     -57749.532     -1450.2449      0.14930265     0.0935         0.029860529  
     18800   228.2758      -52229.109     -57802.649     -1149.4974      0.11455573     0.094          0.022911147  
     18900   228.90497     -52145.355     -57734.256     -1323.8874      0.13300552     0.0945         0.026601105  
     19000   227.60162     -52141.37      -57698.449     -1429.7958      0.14269404     0.095          0.028538809  
     19100   224.16232     -52229.349     -57702.455     -1119.2177      0.10901944     0.0955         0.021803887  
     19200   222.97337     -52315.575     -57759.652     -1252.0878      0.12685191     0.096          0.025370383  
     19300   226.09394     -52319.259     -57839.526     -1137.5173      0.11484322     0.0965         0.022968645  
     19400   224.78572     -52285.708     -57774.034     -1125.315       0.10997071     0.097          0.021994141  
     19500   228.96467     -52197.506     -57787.865     -1339.1253      0.13150213     0.0975         0.026300426  
     19600   225.68144     -52164.556     -57674.753     -1107.2113      0.10819425     0.098          0.02163885   
     19700   226.54312     -52208.073     -57739.308     -1276.1066      0.12893332     0.0985         0.025786665  
     19800   225.05611     -52286.684     -57781.613     -1422.4918      0.14154752     0.099          0.028309504  
     19900   224.45611     -52270.939     -57751.218     -1330.5383      0.13496043     0.0995         0.026992086  
SHAKE stats (type/ave/delta/count) on step 20000
Bond:   1   0.9572    0.000486134     8192
Angle:  1   104.52    0.0330378       4096
     20000   222.40059     -52241.763     -57671.855     -1506.931       0.14674614     0.1            0.029349228  
Loop time of 9.43994 on 56 procs for 2000 steps with 12288 atoms

Performance: 18.305 ns/day, 1.311 hours/ns, 211.866 timesteps/s, 2.603 Matom-step/s
99.7% CPU use with 56 MPI tasks x no OpenMP threads

MPI task timing breakdown:
Section |  min time  |  avg time  |  max time  |%varavg| %total
---------------------------------------------------------------
Pair    | 3.8137     | 4.0458     | 4.2897     |   5.6 | 42.86
Bond    | 0.00035302 | 0.00065523 | 0.00096397 |   0.0 |  0.01
Kspace  | 2.827      | 3.0564     | 3.2728     |   6.1 | 32.38
Neigh   | 0.26612    | 0.26624    | 0.26641    |   0.0 |  2.82
Comm    | 0.30922    | 0.32917    | 0.36484    |   1.9 |  3.49
Output  | 0.0016186  | 0.0016527  | 0.0023564  |   0.2 |  0.02
Modify  | 1.2854     | 1.5196     | 1.6934     |   9.3 | 16.10
Other   |            | 0.2204     |            |       |  2.33

Nlocal:        219.429 ave         242 max         204 min
Histogram: 1 8 6 12 12 9 5 2 0 1
Nghost:        6812.91 ave        6890 max        6749 min
Histogram: 2 2 9 11 12 8 6 3 0 3
Neighs:        95031.6 ave      107613 max       86272 min
Histogram: 1 6 9 10 14 10 5 0 0 1

Total # of neighbors = 5321769
Ave neighs/atom = 433.08667
Ave special neighs/atom = 2
Neighbor list builds = 23
Dangerous builds = 0
kspace_style pppm/tip4p 1.0e-5
next nloop
jump SELF loop_start
run ${stepsPerReset}
run 2000
PPPM initialization ...
  extracting TIP4P info from pair style
  using 12-bit tables for long-range coulomb
  G vector (1/distance) = 0.3338329
  grid = 54 60 54
  stencil order = 5
  estimated absolute RMS force accuracy = 0.0028432295
  estimated relative force accuracy = 8.5623013e-06
  using double precision KISS FFT
  3d grid and FFT values/proc = 14688 3456
Generated 0 of 1 mixed pair_coeff terms from geometric mixing rule
SHAKE stats (type/ave/delta/count) on step 20000
Bond:   1   0.9572    0.000972703     8192
Angle:  1   104.52    0.0660807       4096
Per MPI rank memory allocation (min/avg/max) = 9.68 | 10.04 | 10.16 Mbytes
   Step          Temp          TotEng         PotEng          Pxy           v_sxy         v_strain     v_viscosity  
     20000   222.40145     -52241.721     -57671.834     -1494.9688      0.14552882     0.1            0.029105763  
     20100   222.04886     -52221.932     -57643.436     -1208.082       0.11994259     0.1005         0.023988518  
     20200   227.37816     -52149.736     -57701.359     -1020.7705      0.098475826    0.101          0.019695165  
     20300   226.62969     -52144.704     -57678.053     -1104.0674      0.10710614     0.1015         0.021421229  
     20400   225.37701     -52223.354     -57726.118     -1284.3237      0.12574711     0.102          0.025149423  
     20500   223.901       -52324.866     -57791.592     -1007.0451      0.10017165     0.1025         0.020034329  
     20600   222.49367     -52378.327     -57810.691     -1046.4628      0.10566722     0.103          0.021133444  
     20700   223.08586     -52310.613     -57757.436     -1230.8922      0.12225508     0.1035         0.024451017  
     20800   225.58445     -52212.627     -57720.455     -1242.4676      0.12800148     0.104          0.025600295  
     20900   225.30277     -52155.404     -57656.354     -1196.6287      0.12113273     0.1045         0.024226546  
     21000   228.78465     -52146.99      -57732.953     -1335.0115      0.13418533     0.105          0.026837066  
     21100   227.01015     -52232.28      -57774.917     -1162.3449      0.11843967     0.1055         0.023687934  
     21200   222.00722     -52329.296     -57749.783     -1145.6624      0.11480932     0.106          0.022961864  
     21300   222.16224     -52346.952     -57771.225     -1214.9113      0.12187906     0.1065         0.024375812  
     21400   222.50775     -52267.52      -57700.228     -1233.168       0.12346651     0.107          0.024693302  
     21500   226.44333     -52153.876     -57682.675     -1530.3486      0.1527434      0.1075         0.030548679  
     21600   226.99826     -52144.81      -57687.157     -1420.3862      0.14178043     0.108          0.028356086  
     21700   221.70731     -52220.836     -57634.001     -1292.1295      0.12793362     0.1085         0.025586724  
     21800   226.55326     -52258.436     -57789.919     -1538.3841      0.1549713      0.109          0.030994259  
     21900   224.76489     -52328.146     -57815.964     -1288.2886      0.12758927     0.1095         0.025517855  
     22000   219.93446     -52347.187     -57717.066     -1497.8187      0.14839939     0.11           0.029679878  
Loop time of 9.5847 on 56 procs for 2000 steps with 12288 atoms

Performance: 18.029 ns/day, 1.331 hours/ns, 208.666 timesteps/s, 2.564 Matom-step/s
99.7% CPU use with 56 MPI tasks x no OpenMP threads

MPI task timing breakdown:
Section |  min time  |  avg time  |  max time  |%varavg| %total
---------------------------------------------------------------
Pair    | 3.7329     | 4.049      | 4.3939     |   6.2 | 42.24
Bond    | 0.00039724 | 0.00065024 | 0.00092914 |   0.0 |  0.01
Kspace  | 2.7632     | 3.1054     | 3.3917     |   6.8 | 32.40
Neigh   | 0.29963    | 0.29974    | 0.29993    |   0.0 |  3.13
Comm    | 0.31845    | 0.34023    | 0.36904    |   1.9 |  3.55
Output  | 0.0015705  | 0.0016055  | 0.0024436  |   0.3 |  0.02
Modify  | 1.315      | 1.5612     | 1.7384     |   9.2 | 16.29
Other   |            | 0.2268     |            |       |  2.37

Nlocal:        219.429 ave         236 max         203 min
Histogram: 5 1 4 8 13 8 3 7 4 3
Nghost:        6821.04 ave        6868 max        6768 min
Histogram: 2 1 3 9 8 13 6 9 3 2
Neighs:        95021.2 ave      104577 max       87491 min
Histogram: 5 2 7 14 9 5 5 6 2 1

Total # of neighbors = 5321187
Ave neighs/atom = 433.03931
Ave special neighs/atom = 2
Neighbor list builds = 25
Dangerous builds = 0
kspace_style pppm/tip4p 1.0e-5
next nloop
jump SELF loop_start
run ${stepsPerReset}
run 2000
PPPM initialization ...
  extracting TIP4P info from pair style
  using 12-bit tables for long-range coulomb
  G vector (1/distance) = 0.33360304
  grid = 54 60 54
  stencil order = 5
  estimated absolute RMS force accuracy = 0.0028833227
  estimated relative force accuracy = 8.6830406e-06
  using double precision KISS FFT
  3d grid and FFT values/proc = 14688 3456
Generated 0 of 1 mixed pair_coeff terms from geometric mixing rule
SHAKE stats (type/ave/delta/count) on step 22000
Bond:   1   0.9572    0.000974556     8192
Angle:  1   104.52    0.0590977       4096
Per MPI rank memory allocation (min/avg/max) = 9.68 | 10.05 | 10.16 Mbytes
   Step          Temp          TotEng         PotEng          Pxy           v_sxy         v_strain     v_viscosity  
     22000   219.935       -52347.174     -57717.066     -1485.8475      0.14717034     0.11           0.029434069  
     22100   224.79119     -52217.876     -57706.336     -1346.9279      0.13432905     0.1105         0.02686581   
     22200   226.3067      -52088.001     -57613.464     -1239.4154      0.12505138     0.111          0.025010277  
     22300   224.15966     -52109.082     -57582.122     -1464.7014      0.14429347     0.1115         0.028858694  
     22400   225.35389     -52210.016     -57712.215     -1421.6677      0.13990075     0.112          0.027980151  
     22500   223.91316     -52307.558     -57774.581     -1202.9383      0.12146929     0.1125         0.024293857  
     22600   223.77947     -52346.618     -57810.377     -1324.1136      0.13268772     0.113          0.026537545  
     22700   225.0149      -52285.493     -57779.415     -1584.7064      0.15813508     0.1135         0.031627015  
     22800   227.12561     -52171.483     -57716.94      -1343.5795      0.1370627      0.114          0.027412539  
     22900   230.18913     -52127.475     -57747.73      -1476.7586      0.14856767     0.1145         0.029713533  
     23000   226.55648     -52163.898     -57695.459     -1365.5975      0.13575039     0.115          0.027150077  
     23100   226.60144     -52239.52      -57772.179     -1236.5585      0.1218985      0.1155         0.024379699  
     23200   223.56475     -52326.095     -57784.61      -1264.8692      0.12666457     0.116          0.025332915  
     23300   222.67035     -52304.073     -57740.751     -1121.0608      0.10945618     0.1165         0.021891236  
     23400   227.16224     -52185.501     -57731.852     -1193.2495      0.11869169     0.117          0.023738339  
     23500   228.07425     -52109.647     -57678.266     -1479.5095      0.14804212     0.1175         0.029608423  
     23600   225.81694     -52080.235     -57593.739     -1451.3651      0.14595387     0.118          0.029190773  
     23700   226.49158     -52086.85      -57616.827     -1219.1754      0.12313683     0.1185         0.024627366  
     23800   224.42434     -52191.791     -57671.294     -1224.7835      0.12262016     0.119          0.024524033  
     23900   224.01724     -52301.423     -57770.987     -1137.326       0.11666184     0.1195         0.023332368  
     24000   222.77029     -52343.866     -57782.984     -1286.2067      0.12691584     0.12           0.025383168  
Loop time of 9.4186 on 56 procs for 2000 steps with 12288 atoms

Performance: 18.347 ns/day, 1.308 hours/ns, 212.346 timesteps/s, 2.609 Matom-step/s
99.8% CPU use with 56 MPI tasks x no OpenMP threads

MPI task timing breakdown:
Section |  min time  |  avg time  |  max time  |%varavg| %total
---------------------------------------------------------------
Pair    | 3.7854     | 4.0505     | 4.3012     |   6.0 | 43.01
Bond    | 0.00039652 | 0.00064787 | 0.00092991 |   0.0 |  0.01
Kspace  | 2.805      | 3.0474     | 3.2982     |   6.6 | 32.36
Neigh   | 0.25663    | 0.2568     | 0.25702    |   0.0 |  2.73
Comm    | 0.31209    | 0.32769    | 0.36119    |   2.0 |  3.48
Output  | 0.0015596  | 0.0015913  | 0.0023695  |   0.3 |  0.02
Modify  | 1.2804     | 1.5195     | 1.6888     |   9.4 | 16.13
Other   |            | 0.2145     |            |       |  2.28

Nlocal:        219.429 ave         237 max         199 min
Histogram: 1 2 6 4 8 13 10 7 4 1
Nghost:        6825.11 ave        6892 max        6772 min
Histogram: 1 4 9 11 11 8 6 2 3 1
Neighs:        95005.8 ave      102002 max       85809 min
Histogram: 2 1 5 3 7 13 8 10 4 3

Total # of neighbors = 5320326
Ave neighs/atom = 432.96924
Ave special neighs/atom = 2
Neighbor list builds = 22
Dangerous builds = 0
kspace_style pppm/tip4p 1.0e-5
next nloop
jump SELF loop_start
run ${stepsPerReset}
run 2000
PPPM initialization ...
  extracting TIP4P info from pair style
  using 12-bit tables for long-range coulomb
  G vector (1/distance) = 0.33335087
  grid = 54 60 54
  stencil order = 5
  estimated absolute RMS force accuracy = 0.0029278815
  estimated relative force accuracy = 8.8172283e-06
  using double precision KISS FFT
  3d grid and FFT values/proc = 14688 3456
Generated 0 of 1 mixed pair_coeff terms from geometric mixing rule
SHAKE stats (type/ave/delta/count) on step 24000
Bond:   1   0.9572    0.000967966     8192
Angle:  1   104.52    0.0634566       4096
Per MPI rank memory allocation (min/avg/max) = 9.68 | 10.06 | 10.16 Mbytes
   Step          Temp          TotEng         PotEng          Pxy           v_sxy         v_strain     v_viscosity  
     24000   222.7707      -52343.824     -57782.953     -1276.0889      0.12588126     0.12           0.025176251  
     24100   223.60262     -52276.674     -57736.115     -1801.8607      0.17965298     0.1205         0.035930597  
     24200   227.77402     -52163.672     -57724.96      -1510.9005      0.1519876      0.121          0.030397521  
     24300   227.0864      -52103.236     -57647.736     -1431.3515      0.14107996     0.1215         0.028215992  
     24400   225.64481     -52160.386     -57669.688     -1485.6234      0.14703914     0.122          0.029407827  
     24500   224.56197     -52201.355     -57684.219     -1050.5347      0.10428266     0.1225         0.020856532  
     24600   225.42948     -52241.352     -57745.396     -1464.9426      0.14584067     0.123          0.029168135  
     24700   220.76746     -52277.319     -57667.536     -1570.0313      0.1537391      0.1235         0.03074782   
     24800   224.9879      -52220.206     -57713.469     -1481.1685      0.14490469     0.124          0.028980937  
     24900   225.16856     -52152.07      -57649.744     -1300.9001      0.12810927     0.1245         0.025621854  
     25000   224.35577     -52142.966     -57620.795     -1325.508       0.13302268     0.125          0.026604535  
     25100   226.01905     -52179.012     -57697.451     -1581.7121      0.15603143     0.1255         0.031206287  
     25200   221.16105     -52248.437     -57648.264     -1531.03        0.15376054     0.126          0.030752108  
     25300   222.29403     -52265.391     -57692.881     -1444.0506      0.1463971      0.1265         0.02927942   
     25400   223.28807     -52216.248     -57668.008     -1469.8172      0.14321224     0.127          0.028642448  
     25500   224.24658     -52131.178     -57606.341     -1324.368       0.13477823     0.1275         0.026955647  
     25600   227.81075     -52048.295     -57610.48      -1383.5695      0.13667588     0.128          0.027335177  
     25700   226.94388     -52063.953     -57604.973     -1522.1368      0.15305798     0.1285         0.030611595  
     25800   224.4498      -52165.22      -57645.345     -1488.2891      0.14752917     0.129          0.029505834  
     25900   223.59926     -52241.177     -57700.535     -1379.4852      0.13719282     0.1295         0.027438565  
     26000   225.1301      -52265.708     -57762.443     -1468.1214      0.14539731     0.13           0.029079462  
Loop time of 9.43456 on 56 procs for 2000 steps with 12288 atoms

Performance: 18.316 ns/day, 1.310 hours/ns, 211.987 timesteps/s, 2.605 Matom-step/s
99.8% CPU use with 56 MPI tasks x no OpenMP threads

MPI task timing breakdown:
Section |  min time  |  avg time  |  max time  |%varavg| %total
---------------------------------------------------------------
Pair    | 3.7853     | 4.0584     | 4.2938     |   6.1 | 43.02
Bond    | 0.00039144 | 0.00064946 | 0.00095765 |   0.0 |  0.01
Kspace  | 2.7989     | 3.0196     | 3.2647     |   6.8 | 32.01
Neigh   | 0.27954    | 0.27968    | 0.27985    |   0.0 |  2.96
Comm    | 0.31075    | 0.32898    | 0.35699    |   2.0 |  3.49
Output  | 0.0017225  | 0.0017445  | 0.0023341  |   0.2 |  0.02
Modify  | 1.282      | 1.5226     | 1.7016     |   9.3 | 16.14
Other   |            | 0.223      |            |       |  2.36

Nlocal:        219.429 ave         235 max         198 min
Histogram: 1 1 6 4 10 6 9 7 9 3
Nghost:        6827.16 ave        6897 max        6747 min
Histogram: 1 2 3 7 11 8 13 7 3 1
Neighs:        95020.4 ave      102162 max       85198 min
Histogram: 1 3 3 7 8 8 8 7 6 5

Total # of neighbors = 5321140
Ave neighs/atom = 433.03548
Ave special neighs/atom = 2
Neighbor list builds = 24
Dangerous builds = 0
kspace_style pppm/tip4p 1.0e-5
next nloop
jump SELF loop_start
run ${stepsPerReset}
run 2000
PPPM initialization ...
  extracting TIP4P info from pair style
  using 12-bit tables for long-range coulomb
  G vector (1/distance) = 0.33307478
  grid = 54 60 54
  stencil order = 5
  estimated absolute RMS force accuracy = 0.0029773659
  estimated relative force accuracy = 8.966249e-06
  using double precision KISS FFT
  3d grid and FFT values/proc = 14688 3456
Generated 0 of 1 mixed pair_coeff terms from geometric mixing rule
SHAKE stats (type/ave/delta/count) on step 26000
Bond:   1   0.9572    0.000911564     8192
Angle:  1   104.52    0.0605747       4096
Per MPI rank memory allocation (min/avg/max) = 9.698 | 10.06 | 10.16 Mbytes
   Step          Temp          TotEng         PotEng          Pxy           v_sxy         v_strain     v_viscosity  
     26000   225.13234     -52265.638     -57762.428     -1457.0091      0.14425965     0.13           0.02885193   
     26100   222.82181     -52219.178     -57659.554     -1408.382       0.14178981     0.1305         0.028357963  
     26200   224.95116     -52106.873     -57599.239     -1356.9986      0.13572537     0.131          0.027145073  
     26300   227.15118     -52040.99      -57587.072     -1631.4848      0.16397719     0.1315         0.032795438  
     26400   227.48648     -52047.587     -57601.855     -1577.1082      0.15936136     0.132          0.031872271  
     26500   222.3798      -52149.418     -57579.002     -1067.1934      0.10640544     0.1325         0.021281088  
     26600   224.65922     -52252.683     -57737.921     -1228.7468      0.12122495     0.133          0.02424499   
     26700   222.21232     -52306.772     -57732.267     -1403.4498      0.13606193     0.1335         0.027212386  
     26800   224.8588      -52214.975     -57705.086     -1381.173       0.13961041     0.134          0.027922082  
     26900   226.38163     -52065.025     -57592.317     -1194.2481      0.12232428     0.1345         0.024464855  
     27000   223.77346     -52012.159     -57475.771     -1483.8949      0.14748982     0.135          0.029497964  
     27100   229.28653     -52013.56      -57611.777     -1520.5242      0.15097571     0.1355         0.030195142  
     27200   224.61636     -52116.777     -57600.969     -1266.3766      0.12219938     0.136          0.024439877  
     27300   224.72986     -52189.36      -57676.322     -1241.5986      0.1211394      0.1365         0.024227881  
     27400   225.72177     -52196.677     -57707.858     -1563.771       0.15398739     0.137          0.030797477  
     27500   220.72567     -52223.795     -57612.992     -1425.8793      0.14200516     0.1375         0.028401032  
     27600   223.5738      -52143.663     -57602.399     -1505.4427      0.14995502     0.138          0.029991004  
     27700   226.55708     -52046.186     -57577.762     -1348.8234      0.13367827     0.1385         0.026735654  
     27800   227.79831     -52001.092     -57562.973     -1260.0855      0.1270786      0.139          0.025415721  
     27900   224.31835     -52089.457     -57566.372     -1623.8114      0.15743686     0.1395         0.031487371  
     28000   223.4217      -52227.913     -57682.936     -1610.4612      0.15897972     0.14           0.031795944  
Loop time of 9.4175 on 56 procs for 2000 steps with 12288 atoms

Performance: 18.349 ns/day, 1.308 hours/ns, 212.370 timesteps/s, 2.610 Matom-step/s
99.8% CPU use with 56 MPI tasks x no OpenMP threads

MPI task timing breakdown:
Section |  min time  |  avg time  |  max time  |%varavg| %total
---------------------------------------------------------------
Pair    | 3.7579     | 4.0554     | 4.2962     |   5.8 | 43.06
Bond    | 0.00039927 | 0.00064657 | 0.00092188 |   0.0 |  0.01
Kspace  | 2.7858     | 3.0045     | 3.2637     |   6.4 | 31.90
Neigh   | 0.28319    | 0.28336    | 0.28358    |   0.0 |  3.01
Comm    | 0.30531    | 0.32578    | 0.36255    |   2.0 |  3.46
Output  | 0.001583   | 0.0016177  | 0.0023403  |   0.2 |  0.02
Modify  | 1.2778     | 1.5235     | 1.7037     |   9.3 | 16.18
Other   |            | 0.2227     |            |       |  2.36

Nlocal:        219.429 ave         233 max         202 min
Histogram: 3 2 4 5 7 9 4 11 9 2
Nghost:        6828.84 ave        6902 max        6780 min
Histogram: 5 7 7 15 4 7 4 2 4 1
Neighs:        95015.4 ave      101268 max       87297 min
Histogram: 3 3 4 4 10 6 6 11 7 2

Total # of neighbors = 5320862
Ave neighs/atom = 433.01286
Ave special neighs/atom = 2
Neighbor list builds = 24
Dangerous builds = 0
kspace_style pppm/tip4p 1.0e-5
next nloop
jump SELF loop_start
run ${stepsPerReset}
run 2000
PPPM initialization ...
  extracting TIP4P info from pair style
  using 12-bit tables for long-range coulomb
  G vector (1/distance) = 0.3327732
  grid = 54 60 54
  stencil order = 5
  estimated absolute RMS force accuracy = 0.0030322715
  estimated relative force accuracy = 9.1315957e-06
  using double precision KISS FFT
  3d grid and FFT values/proc = 14688 3456
Generated 0 of 1 mixed pair_coeff terms from geometric mixing rule
SHAKE stats (type/ave/delta/count) on step 28000
Bond:   1   0.9572    0.000925506     8192
Angle:  1   104.52    0.0589485       4096
Per MPI rank memory allocation (min/avg/max) = 9.698 | 10.07 | 10.16 Mbytes
   Step          Temp          TotEng         PotEng          Pxy           v_sxy         v_strain     v_viscosity  
     28000   223.41746     -52227.983     -57682.903     -1600.3739      0.15794284     0.14           0.031588567  
     28100   224.35906     -52238.731     -57716.64      -1644.6118      0.16158973     0.1405         0.032317946  
     28200   223.59652     -52167.287     -57626.578     -1526.7717      0.15130066     0.141          0.030260132  
     28300   223.42162     -52074.095     -57529.116     -1510.565       0.15441005     0.1415         0.03088201   
     28400   227.55531     -52003.054     -57559.003     -1387.0904      0.13872205     0.142          0.02774441   
     28500   223.06734     -52051.763     -57498.134     -1568.4636      0.15749729     0.1425         0.031499458  
     28600   223.9639      -52134.231     -57602.492     -1342.2005      0.13446654     0.143          0.026893307  
     28700   223.99948     -52198.06      -57667.19      -1777.7744      0.17886427     0.1435         0.035772855  
     28800   223.38975     -52176.577     -57630.82      -1687.6781      0.16918728     0.144          0.033837457  
     28900   223.99543     -52118.923     -57587.954     -1709.9995      0.17086868     0.1445         0.034173735  
     29000   227.91459     -52086.565     -57651.286     -1813.0283      0.17819837     0.145          0.035639675  
     29100   225.02833     -52124.947     -57619.197     -1796.7676      0.1807119      0.1455         0.03614238   
     29200   225.56796     -52133.131     -57640.557     -1648.5512      0.16771864     0.146          0.033543728  
     29300   226.03593     -52109.506     -57628.357     -1399.3716      0.1364763      0.1465         0.02729526   
     29400   222.88449     -52106.168     -57548.075     -1158.0124      0.11401715     0.147          0.02280343   
     29500   224.68761     -52125.815     -57611.747     -1742.379       0.17287722     0.1475         0.034575445  
     29600   224.06668     -52126.714     -57597.484     -1407.3311      0.13909066     0.148          0.027818131  
     29700   225.61088     -52110.347     -57618.82      -1567.5406      0.15227788     0.1485         0.030455576  
     29800   225.26344     -52098.216     -57598.207     -1475.6654      0.14713828     0.149          0.029427657  
     29900   224.63744     -52088.107     -57572.813     -1243.1825      0.12402987     0.1495         0.024805975  
SHAKE stats (type/ave/delta/count) on step 30000
Bond:   1   0.9572    0.000465582     8192
Angle:  1   104.52    0.0362798       4096
     30000   226.19029     -52118.744     -57641.364     -1578.7522      0.15898837     0.15           0.031797673  
Loop time of 9.45928 on 56 procs for 2000 steps with 12288 atoms

Performance: 18.268 ns/day, 1.314 hours/ns, 211.432 timesteps/s, 2.598 Matom-step/s
99.8% CPU use with 56 MPI tasks x no OpenMP threads

MPI task timing breakdown:
Section |  min time  |  avg time  |  max time  |%varavg| %total
---------------------------------------------------------------
Pair    | 3.7316     | 4.0575     | 4.2756     |   5.8 | 42.89
Bond    | 0.00037169 | 0.00065325 | 0.00098554 |   0.0 |  0.01
Kspace  | 2.8057     | 3.0237     | 3.3104     |   6.4 | 31.97
Neigh   | 0.29857    | 0.29869    | 0.29884    |   0.0 |  3.16
Comm    | 0.31291    | 0.3283     | 0.36564    |   1.9 |  3.47
Output  | 0.0016313  | 0.001664   | 0.0024072  |   0.2 |  0.02
Modify  | 1.2805     | 1.5233     | 1.7053     |   9.4 | 16.10
Other   |            | 0.2255     |            |       |  2.38

Nlocal:        219.429 ave         233 max         194 min
Histogram: 1 3 0 1 6 9 11 11 8 6
Nghost:        6838.84 ave        6898 max        6787 min
Histogram: 2 4 7 9 11 7 6 8 0 2
Neighs:        95014.5 ave      101976 max       83808 min
Histogram: 3 1 1 2 8 8 12 9 7 5

Total # of neighbors = 5320813
Ave neighs/atom = 433.00887
Ave special neighs/atom = 2
Neighbor list builds = 25
Dangerous builds = 0
kspace_style pppm/tip4p 1.0e-5
next nloop
jump SELF loop_start
run ${stepsPerReset}
run 2000
PPPM initialization ...
  extracting TIP4P info from pair style
  using 12-bit tables for long-range coulomb
  G vector (1/distance) = 0.33244457
  grid = 54 60 54
  stencil order = 5
  estimated absolute RMS force accuracy = 0.0030931307
  estimated relative force accuracy = 9.3148711e-06
  using double precision KISS FFT
  3d grid and FFT values/proc = 14688 3456
Generated 0 of 1 mixed pair_coeff terms from geometric mixing rule
SHAKE stats (type/ave/delta/count) on step 30000
Bond:   1   0.9572    0.000931267     8192
Angle:  1   104.52    0.0725588       4096
Per MPI rank memory allocation (min/avg/max) = 9.698 | 10.07 | 10.16 Mbytes
   Step          Temp          TotEng         PotEng          Pxy           v_sxy         v_strain     v_viscosity  
     30000   226.18555     -52118.861     -57641.366     -1565.6004      0.15764146     0.15           0.031528293  
     30100   224.21189     -52146.208     -57620.524     -1632.6613      0.16417264     0.1505         0.032834528  
     30200   224.60691     -52142.07      -57626.031     -1269.4195      0.12637171     0.151          0.025274342  
     30300   222.84883     -52127.531     -57568.567     -1507.6947      0.15186825     0.1515         0.030373651  
     30400   226.32026     -52042.801     -57568.595     -1415.0875      0.13990272     0.152          0.027980544  
     30500   227.1755      -52030.021     -57576.696     -1445.2022      0.14375205     0.1525         0.028750411  
     30600   226.26979     -52098.447     -57623.008     -1558.0372      0.15404308     0.153          0.030808616  
     30700   225.42255     -52192.862     -57696.737     -1420.0332      0.13860518     0.1535         0.027721036  
     30800   224.92018     -52211.389     -57702.999     -1538.0465      0.15516168     0.154          0.031032336  
     30900   224.15904     -52154.659     -57627.685     -1386.6385      0.13840319     0.1545         0.027680638  
     31000   227.32044     -52053.229     -57603.442     -1485.6783      0.14970399     0.155          0.029940797  
     31100   225.97298     -52007.906     -57525.22      -1383.4657      0.13863867     0.1555         0.027727734  
     31200   223.80892     -52023.331     -57487.808     -1471.4879      0.1459518      0.156          0.029190359  
     31300   226.78116     -52091.611     -57628.658     -1614.7575      0.16282937     0.1565         0.032565873  
     31400   222.96127     -52159.008     -57602.789     -1602.0607      0.15696646     0.157          0.031393292  
     31500   223.45771     -52160.495     -57616.397     -1476.4199      0.14723893     0.1575         0.029447786  
     31600   225.11755     -52101.04      -57597.468     -1512.9493      0.15272452     0.158          0.030544904  
     31700   228.67584     -51982.775     -57566.082     -1253.891       0.12511033     0.1585         0.025022066  
     31800   228.55593     -51967.761     -57548.141     -1204.7642      0.11720075     0.159          0.02344015   
     31900   222.07443     -52033.192     -57455.32      -1455.0057      0.14538386     0.1595         0.029076772  
     32000   224.20904     -52073.266     -57547.512     -1682.0669      0.17403736     0.16           0.034807471  
Loop time of 9.5183 on 56 procs for 2000 steps with 12288 atoms

Performance: 18.155 ns/day, 1.322 hours/ns, 210.122 timesteps/s, 2.582 Matom-step/s
99.7% CPU use with 56 MPI tasks x no OpenMP threads

MPI task timing breakdown:
Section |  min time  |  avg time  |  max time  |%varavg| %total
---------------------------------------------------------------
Pair    | 3.7793     | 4.0541     | 4.2969     |   6.1 | 42.59
Bond    | 0.00040721 | 0.00065162 | 0.00097988 |   0.0 |  0.01
Kspace  | 2.8384     | 3.0742     | 3.3385     |   6.7 | 32.30
Neigh   | 0.29083    | 0.29106    | 0.29131    |   0.0 |  3.06
Comm    | 0.31926    | 0.33844    | 0.37415    |   1.9 |  3.56
Output  | 0.0016034  | 0.0016482  | 0.0024181  |   0.3 |  0.02
Modify  | 1.2821     | 1.5242     | 1.7025     |   9.3 | 16.01
Other   |            | 0.2341     |            |       |  2.46

Nlocal:        219.429 ave         236 max         204 min
Histogram: 4 5 6 3 9 12 5 5 4 3
Nghost:        6849.04 ave        6903 max        6770 min
Histogram: 1 2 4 3 5 11 10 11 5 4
Neighs:        95008.4 ave      101880 max       86380 min
Histogram: 2 2 5 7 5 9 8 9 4 5

Total # of neighbors = 5320471
Ave neighs/atom = 432.98104
Ave special neighs/atom = 2
Neighbor list builds = 25
Dangerous builds = 0
kspace_style pppm/tip4p 1.0e-5
next nloop
jump SELF loop_start
run ${stepsPerReset}
run 2000
PPPM initialization ...
  extracting TIP4P info from pair style
  using 12-bit tables for long-range coulomb
  G vector (1/distance) = 0.33208746
  grid = 54 60 54
  stencil order = 5
  estimated absolute RMS force accuracy = 0.0031605126
  estimated relative force accuracy = 9.5177897e-06
  using double precision KISS FFT
  3d grid and FFT values/proc = 14688 3456
Generated 0 of 1 mixed pair_coeff terms from geometric mixing rule
SHAKE stats (type/ave/delta/count) on step 32000
Bond:   1   0.9572    0.000961892     8192
Angle:  1   104.52    0.0607897       4096
Per MPI rank memory allocation (min/avg/max) = 9.698 | 10.07 | 10.16 Mbytes
   Step          Temp          TotEng         PotEng          Pxy           v_sxy         v_strain     v_viscosity  
[...]
    292000   222.15128     -51674.266     -57098.271     -1113.1831      0.10753531     1.46           0.021507063  
Loop time of 10.7492 on 56 procs for 2000 steps with 12288 atoms

Performance: 16.076 ns/day, 1.493 hours/ns, 186.061 timesteps/s, 2.286 Matom-step/s
99.7% CPU use with 56 MPI tasks x no OpenMP threads

MPI task timing breakdown:
Section |  min time  |  avg time  |  max time  |%varavg| %total
---------------------------------------------------------------
Pair    | 3.7723     | 4.1233     | 4.4613     |   8.0 | 38.36
Bond    | 0.00044318 | 0.00071543 | 0.0010625  |   0.0 |  0.01
Kspace  | 3.3754     | 3.7273     | 4.0905     |   8.3 | 34.68
Neigh   | 0.26891    | 0.26911    | 0.26933    |   0.0 |  2.50
Comm    | 0.34603    | 0.37591    | 0.42617    |   3.4 |  3.50
Output  | 0.065418   | 0.10214    | 0.14844    |   6.6 |  0.95
Modify  | 1.6054     | 1.8526     | 2.0604     |   9.6 | 17.24
Other   |            | 0.298      |            |       |  2.77

Nlocal:        219.429 ave         242 max         195 min
Histogram: 1 2 6 5 12 10 10 6 1 3
Nghost:        7159.29 ave        7231 max        7078 min
Histogram: 3 0 1 10 13 9 7 8 2 3
Neighs:        95014.3 ave      105996 max       82515 min
Histogram: 1 1 4 9 10 14 6 6 1 4

Total # of neighbors = 5320799
Ave neighs/atom = 433.00773
Ave special neighs/atom = 2
Neighbor list builds = 24
Dangerous builds = 0
kspace_style pppm/tip4p 1.0e-5
next nloop2
jump SELF loop_start2
run ${stepsPerReset}
run 2000
PPPM initialization ...
  extracting TIP4P info from pair style
  using 12-bit tables for long-range coulomb
  G vector (1/distance) = 0.33118526
  grid = 54 75 54
  stencil order = 5
  estimated absolute RMS force accuracy = 0.0033367181
  estimated relative force accuracy = 1.0048427e-05
  using double precision KISS FFT
  3d grid and FFT values/proc = 17748 4320
Generated 0 of 1 mixed pair_coeff terms from geometric mixing rule
SHAKE stats (type/ave/delta/count) on step 292000
Bond:   1   0.9572    0.000971791     8192
Angle:  1   104.52    0.0695479       4096
Per MPI rank memory allocation (min/avg/max) = 11.58 | 11.72 | 11.84 Mbytes
   Step          Temp          TotEng         PotEng          Pxy           v_sxy         v_strain     v_viscosity  
    292000   222.15104     -51674.271     -57098.27      -1103.4225      0.10653941     1.46           0.021307881  
    292100   224.70427     -51598.588     -57084.926     -970.1591       0.094902156    1.4605         0.018980431  
    292200   227.38126     -51516         -57067.699     -1017.8507      0.10003255     1.461          0.02000651   
    292300   225.70721     -51555.295     -57066.12      -1053.3596      0.10430592     1.4615         0.020861185  
    292400   224.48427     -51658.23      -57139.197     -1209.9419      0.12052052     1.462          0.024104103  
    292500   222.95695     -51707.558     -57151.234     -1141.6827      0.11194092     1.4625         0.022388183  
    292600   224.52156     -51694.249     -57176.126     -1169.8403      0.11441372     1.463          0.022882744  
    292700   223.50918     -51660.218     -57117.377     -1341.5437      0.13173899     1.4635         0.026347797  
    292800   224.62443     -51573.748     -57058.137     -1178.5302      0.11496953     1.464          0.022993905  
    292900   226.75115     -51552.132     -57088.446     -943.92458      0.091358856    1.4645         0.018271771  
    293000   221.80784     -51634.664     -57050.283     -724.95055      0.067996527    1.465          0.013599305  
    293100   224.8241      -51677.83      -57167.094     -853.75794      0.082252968    1.4655         0.016450594  
    293200   226.10861     -51656.731     -57177.357     -979.63125      0.096133394    1.466          0.019226679  
    293300   224.22109     -51606.221     -57080.762     -1038.2544      0.1025941      1.4665         0.020518819  
    293400   224.4331      -51545.02      -57024.737     -1149.0079      0.11656923     1.467          0.023313847  
    293500   224.22154     -51553.447     -57027.998     -526.63739      0.050071834    1.4675         0.010014367  
    293600   226.80385     -51578.557     -57116.158     -953.07111      0.093890745    1.468          0.018778149  
    293700   225.24119     -51623.68      -57123.127     -917.34995      0.093331342    1.4685         0.018666268  
    293800   222.78101     -51676.325     -57115.705     -803.90884      0.079680571    1.469          0.015936114  
    293900   224.54025     -51672.186     -57154.52      -1146.1331      0.11070209     1.4695         0.022140418  
    294000   225.21555     -51629.996     -57128.817     -762.09854      0.073036462    1.47           0.014607292  
Loop time of 10.8131 on 56 procs for 2000 steps with 12288 atoms

Performance: 15.981 ns/day, 1.502 hours/ns, 184.961 timesteps/s, 2.273 Matom-step/s
99.7% CPU use with 56 MPI tasks x no OpenMP threads

MPI task timing breakdown:
Section |  min time  |  avg time  |  max time  |%varavg| %total
---------------------------------------------------------------
Pair    | 3.7718     | 4.1191     | 4.4594     |   7.9 | 38.09
Bond    | 0.00046259 | 0.00072073 | 0.0010144  |   0.0 |  0.01
Kspace  | 3.3975     | 3.7327     | 4.0872     |   8.1 | 34.52
Neigh   | 0.32766    | 0.32786    | 0.32811    |   0.0 |  3.03
Comm    | 0.34711    | 0.37918    | 0.43388    |   3.9 |  3.51
Output  | 0.065103   | 0.10215    | 0.14844    |   6.7 |  0.94
Modify  | 1.5992     | 1.8541     | 2.0644     |   9.6 | 17.15
Other   |            | 0.2973     |            |       |  2.75

Nlocal:        219.429 ave         238 max         199 min
Histogram: 2 0 7 7 11 10 7 6 3 3
Nghost:        7178.62 ave        7243 max        7118 min
Histogram: 4 3 6 7 10 7 9 4 3 3
Neighs:        95032.3 ave      103389 max       84456 min
Histogram: 2 0 5 6 11 9 8 7 2 6

Total # of neighbors = 5321809
Ave neighs/atom = 433.08993
Ave special neighs/atom = 2
Neighbor list builds = 29
Dangerous builds = 0
kspace_style pppm/tip4p 1.0e-5
next nloop2
jump SELF loop_start2
run ${stepsPerReset}
run 2000
PPPM initialization ...
  extracting TIP4P info from pair style
  using 12-bit tables for long-range coulomb
  G vector (1/distance) = 0.3307279
  grid = 54 75 54
  stencil order = 5
  estimated absolute RMS force accuracy = 0.0034294351
  estimated relative force accuracy = 1.0327642e-05
  using double precision KISS FFT
  3d grid and FFT values/proc = 17748 4320
Generated 0 of 1 mixed pair_coeff terms from geometric mixing rule
SHAKE stats (type/ave/delta/count) on step 294000
Bond:   1   0.9572    0.000957661     8192
Angle:  1   104.52    0.0751916       4096
Per MPI rank memory allocation (min/avg/max) = 11.58 | 11.72 | 11.84 Mbytes
   Step          Temp          TotEng         PotEng          Pxy           v_sxy         v_strain     v_viscosity  
    294000   225.21642     -51629.99      -57128.833     -750.26954      0.071822691    1.47           0.014364538  
    294100   226.0916      -51574.514     -57094.724     -783.67422      0.077641005    1.4705         0.015528201  
    294200   226.37122     -51530.793     -57057.831     -1122.2486      0.11368157     1.471          0.022736314  
    294300   232.32922     -51549.039     -57221.546     -889.42806      0.088069608    1.4715         0.017613922  
    294400   224.46464     -51694.08      -57174.567     -1062.5291      0.10569712     1.472          0.021139425  
    294500   220.13493     -51811.92      -57186.694     -760.75042      0.078191802    1.4725         0.01563836   
    294600   224.72937     -51716.085     -57203.036     -732.02963      0.070768996    1.473          0.014153799  
    294700   228.10139     -51533.427     -57102.709     -977.95694      0.098379945    1.4735         0.019675989  
    294800   228.09021     -51460.852     -57029.861     -1046.7045      0.10857731     1.474          0.021715462  
    294900   222.75243     -51541.927     -56980.609     -997.72241      0.099208131    1.4745         0.019841626  
    295000   223.74875     -51629.15      -57092.158     -1306.8328      0.12958281     1.475          0.025916561  
    295100   221.94916     -51692.801     -57111.87      -918.79359      0.088685265    1.4755         0.017737053  
    295200   223.43607     -51682.13      -57137.504     -800.55921      0.081016037    1.476          0.016203207  
    295300   226.70282     -51624.784     -57159.918     -860.95992      0.087335127    1.4765         0.017467025  
    295400   228.56302     -51518.121     -57098.673     -1060.5039      0.10430201     1.477          0.020860402  
    295500   228.3204      -51469.375     -57044.004     -964.89437      0.095379322    1.4775         0.019075864  
    295600   226.06573     -51524.38      -57043.959     -1072.1957      0.10712422     1.478          0.021424843  
    295700   224.48413     -51648.626     -57129.589     -1006.6057      0.10197635     1.4785         0.02039527   
    295800   223.02536     -51764.011     -57209.357     -1313.4625      0.13009372     1.479          0.026018745  
    295900   220.02839     -51773.814     -57145.986     -1066.7967      0.1062017      1.4795         0.02124034   
    296000   226.87608     -51624.392     -57163.756     -777.98215      0.078741864    1.48           0.015748373  
Loop time of 10.8521 on 56 procs for 2000 steps with 12288 atoms

Performance: 15.923 ns/day, 1.507 hours/ns, 184.295 timesteps/s, 2.265 Matom-step/s
99.7% CPU use with 56 MPI tasks x no OpenMP threads

MPI task timing breakdown:
Section |  min time  |  avg time  |  max time  |%varavg| %total
---------------------------------------------------------------
Pair    | 3.7952     | 4.126      | 4.3744     |   7.3 | 38.02
Bond    | 0.00049035 | 0.00071753 | 0.0010082  |   0.0 |  0.01
Kspace  | 3.4574     | 3.7067     | 4.0052     |   7.5 | 34.16
Neigh   | 0.31492    | 0.31513    | 0.31542    |   0.0 |  2.90
Comm    | 0.35337    | 0.38623    | 0.44036    |   3.8 |  3.56
Output  | 0.066545   | 0.14853    | 0.19768    |   6.5 |  1.37
Modify  | 1.6043     | 1.8587     | 2.0689     |   9.7 | 17.13
Other   |            | 0.3101     |            |       |  2.86

Nlocal:        219.429 ave         239 max         203 min
Histogram: 2 6 7 7 9 13 4 6 0 2
Nghost:        7187.95 ave        7255 max        7137 min
Histogram: 6 7 10 4 4 10 7 3 2 3
Neighs:        95021.6 ave      105594 max       87776 min
Histogram: 4 6 7 10 13 5 6 3 1 1

Total # of neighbors = 5321212
Ave neighs/atom = 433.04134
Ave special neighs/atom = 2
Neighbor list builds = 28
Dangerous builds = 0
kspace_style pppm/tip4p 1.0e-5
next nloop2
jump SELF loop_start2
run ${stepsPerReset}
run 2000
PPPM initialization ...
  extracting TIP4P info from pair style
  using 12-bit tables for long-range coulomb
  G vector (1/distance) = 0.33023744
  grid = 54 75 54
  stencil order = 5
  estimated absolute RMS force accuracy = 0.0035314952
  estimated relative force accuracy = 1.0634993e-05
  using double precision KISS FFT
  3d grid and FFT values/proc = 17748 4320
Generated 0 of 1 mixed pair_coeff terms from geometric mixing rule
SHAKE stats (type/ave/delta/count) on step 296000
Bond:   1   0.9572    0.000925574     8192
Angle:  1   104.52    0.0682583       4096
Per MPI rank memory allocation (min/avg/max) = 11.58 | 11.72 | 11.84 Mbytes
   Step          Temp          TotEng         PotEng          Pxy           v_sxy         v_strain     v_viscosity  
    296000   226.87759     -51624.344     -57163.745     -766.58592      0.077579796    1.48           0.015515959  
    296100   227.61466     -51474.674     -57032.071     -839.93609      0.085241145    1.4805         0.017048229  
    296200   226.75783     -51423.685     -56960.162     -661.71116      0.067066081    1.481          0.013413216  
    296300   227.38426     -51506.781     -57058.553     -1126.1972      0.11007055     1.4815         0.02201411   
    296400   224.69735     -51623.913     -57110.082     -848.35488      0.083976079    1.482          0.016795216  
    296500   223.46995     -51698.91      -57155.111     -829.52876      0.080942831    1.4825         0.016188566  
    296600   224.57823     -51677.807     -57161.067     -866.9829       0.084267838    1.483          0.016853568  
    296700   224.95592     -51565.825     -57058.307     -1052.3194      0.10668242     1.4835         0.021336483  
    296800   227.56981     -51488.386     -57044.688     -1006.1161      0.10083997     1.484          0.020167995  
    296900   223.7394      -51544.859     -57007.639     -865.70975      0.086145146    1.4845         0.017229029  
    297000   225.1117      -51622.732     -57119.018     -1024.2538      0.10139903     1.485          0.020279807  
    297100   226.92345     -51688.332     -57228.853     -834.37453      0.081741578    1.4855         0.016348316  
    297200   223.62643     -51741.694     -57201.715     -963.7923       0.096598725    1.486          0.019319745  
    297300   220.99835     -51728.685     -57124.54      -1122.3884      0.11179314     1.4865         0.022358629  
    297400   221.61261     -51641.796     -57052.649     -1142.2181      0.11062517     1.487          0.022125034  
    297500   227.18862     -51502.81      -57049.805     -1150.3865      0.11124892     1.4875         0.022249785  
    297600   229.2245      -51430.303     -57027.006     -906.13414      0.088714565    1.488          0.017742913  
    297700   228.92329     -51498.222     -57087.57      -1146.8894      0.11556201     1.4885         0.023112402  
    297800   225.04824     -51645.126     -57139.862     -940.19926      0.094753909    1.489          0.018950782  
    297900   222.39833     -51745.151     -57175.188     -997.41594      0.099666705    1.4895         0.019933341  
    298000   223.84388     -51745.335     -57210.666     -1061.9693      0.10551624     1.49           0.021103249  
Loop time of 10.7952 on 56 procs for 2000 steps with 12288 atoms

Performance: 16.007 ns/day, 1.499 hours/ns, 185.268 timesteps/s, 2.277 Matom-step/s
99.7% CPU use with 56 MPI tasks x no OpenMP threads

MPI task timing breakdown:
Section |  min time  |  avg time  |  max time  |%varavg| %total
---------------------------------------------------------------
Pair    | 3.8189     | 4.121      | 4.4374     |   7.5 | 38.17
Bond    | 0.00046956 | 0.00071076 | 0.0010283  |   0.0 |  0.01
Kspace  | 3.4207     | 3.7443     | 4.0549     |   7.7 | 34.69
Neigh   | 0.28342    | 0.28362    | 0.28391    |   0.0 |  2.63
Comm    | 0.34344    | 0.37595    | 0.42833    |   3.8 |  3.48
Output  | 0.065055   | 0.10215    | 0.14876    |   6.7 |  0.95
Modify  | 1.6046     | 1.8581     | 2.066      |   9.6 | 17.21
Other   |            | 0.3093     |            |       |  2.87

Nlocal:        219.429 ave         242 max         202 min
Histogram: 1 4 13 9 5 8 9 5 0 2
Nghost:         7206.5 ave        7263 max        7134 min
Histogram: 2 2 5 4 6 8 13 9 3 4
Neighs:        95028.1 ave      106206 max       86064 min
Histogram: 1 4 13 9 7 8 8 4 0 2

Total # of neighbors = 5321573
Ave neighs/atom = 433.07072
Ave special neighs/atom = 2
Neighbor list builds = 25
Dangerous builds = 0
kspace_style pppm/tip4p 1.0e-5
next nloop2
jump SELF loop_start2
run ${stepsPerReset}
run 2000
PPPM initialization ...
  extracting TIP4P info from pair style
  using 12-bit tables for long-range coulomb
  G vector (1/distance) = 0.32971331
  grid = 54 75 54
  stencil order = 5
  estimated absolute RMS force accuracy = 0.0036436689
  estimated relative force accuracy = 1.0972801e-05
  using double precision KISS FFT
  3d grid and FFT values/proc = 17748 4320
Generated 0 of 1 mixed pair_coeff terms from geometric mixing rule
SHAKE stats (type/ave/delta/count) on step 298000
Bond:   1   0.957201  0.000905235     8192
Angle:  1   104.52    0.0712617       4096
Per MPI rank memory allocation (min/avg/max) = 11.58 | 11.72 | 11.84 Mbytes
   Step          Temp          TotEng         PotEng          Pxy           v_sxy         v_strain     v_viscosity  
    298000   223.8422      -51745.4       -57210.69      -1051.14        0.10440709     1.49           0.020881419  
    298100   222.80685     -51682.425     -57122.436     -1309.3708      0.12919355     1.4905         0.02583871   
    298200   228.12227     -51597.437     -57167.228     -1182.9674      0.11849035     1.491          0.02369807   
    298300   226.83225     -51516.423     -57054.718     -977.1354       0.097964721    1.4915         0.019592944  
    298400   226.59329     -51537.124     -57069.584     -1069.2115      0.10671935     1.492          0.02134387   
    298500   222.56739     -51609.336     -57043.5       -1121.1746      0.11450804     1.4925         0.022901608  
    298600   225.55923     -51616.354     -57123.566     -1130.7925      0.11222482     1.493          0.022444964  
    298700   225.43971     -51630.57      -57134.864     -889.2582       0.085705009    1.4935         0.017141002  
    298800   222.92284     -51669.501     -57112.344     -1327.1983      0.13081974     1.494          0.026163947  
    298900   224.76949     -51686.982     -57174.912     -1142.9981      0.11261024     1.4945         0.022522048  
    299000   225.86064     -51678.652     -57193.223     -1082.1562      0.10777245     1.495          0.021554489  
    299100   224.37456     -51636.775     -57115.062     -665.02083      0.064942301    1.4955         0.01298846   
    299200   227.63898     -51569.685     -57127.676     -862.15344      0.086621028    1.496          0.017324206  
    299300   227.01756     -51566.043     -57108.862     -725.67681      0.07282183     1.4965         0.014564366  
    299400   222.94284     -51641.561     -57084.892     -700.42922      0.06656255     1.497          0.01331251   
    299500   227.66088     -51662.587     -57221.113     -1003.9061      0.099318535    1.4975         0.019863707  
    299600   222.36714     -51676.758     -57106.033     -1203.5609      0.12213147     1.498          0.024426294  
    299700   225.72903     -51642.418     -57153.776     -972.62525      0.096895496    1.4985         0.019379099  
    299800   225.89725     -51584.722     -57100.188     -1166.409       0.11798738     1.499          0.023597476  
    299900   228.74036     -51557.518     -57142.4       -1120.9692      0.11076623     1.4995         0.022153247  
SHAKE stats (type/ave/delta/count) on step 300000
Bond:   1   0.9572    0.000455274     8192
Angle:  1   104.52    0.0317596       4096
    300000   225.71362     -51601.146     -57112.128     -940.54771      0.094231855    1.5            0.018846371  
Loop time of 10.7981 on 56 procs for 2000 steps with 12288 atoms

Performance: 16.003 ns/day, 1.500 hours/ns, 185.218 timesteps/s, 2.276 Matom-step/s
99.7% CPU use with 56 MPI tasks x no OpenMP threads

MPI task timing breakdown:
Section |  min time  |  avg time  |  max time  |%varavg| %total
---------------------------------------------------------------
Pair    | 3.845      | 4.1231     | 4.4605     |   7.3 | 38.18
Bond    | 0.00048344 | 0.00072282 | 0.0010047  |   0.0 |  0.01
Kspace  | 3.3692     | 3.7223     | 4.0129     |   7.6 | 34.47
Neigh   | 0.30735    | 0.30758    | 0.30788    |   0.0 |  2.85
Comm    | 0.34729    | 0.38015    | 0.42836    |   3.9 |  3.52
Output  | 0.065729   | 0.10268    | 0.14937    |   6.7 |  0.95
Modify  | 1.5957     | 1.8579     | 2.0749     |   9.6 | 17.21
Other   |            | 0.3037     |            |       |  2.81

Nlocal:        219.429 ave         244 max         205 min
Histogram: 4 9 13 5 12 4 5 2 0 2
Nghost:        7220.93 ave        7318 max        7146 min
Histogram: 3 6 7 9 10 10 4 3 2 2
Neighs:        95012.3 ave      108052 max       88263 min
Histogram: 5 9 14 8 9 4 4 0 2 1

Total # of neighbors = 5320687
Ave neighs/atom = 432.99862
Ave special neighs/atom = 2
Neighbor list builds = 27
Dangerous builds = 0
kspace_style pppm/tip4p 1.0e-5
next nloop2
jump SELF loop_start2
Total wall time: 0:24:54
