LAMMPS (22 Jul 2025 - Update 1)
units real
atom_style full
boundary p p p

# package intel 1 omp 2

pair_style lj/cut/tip4p/long 1 2 1 1 0.1546 9.5

bond_style zero
angle_style zero
pair_modify tail yes

read_data equilibration_NVT_${T}.data
read_data equilibration_NVT_246.data
Reading data file ...
  orthogonal box = (0 0 0) to (24.89526 24.89526 24.89526)
  2 by 4 by 7 MPI processor grid
  reading atoms ...
  1536 atoms
  reading velocities ...
  1536 velocities
  scanning bonds ...
  2 = max bonds/atom
  scanning angles ...
  1 = max angles/atom
  orthogonal box = (0 0 0) to (24.89526 24.89526 24.89526)
  2 by 4 by 7 MPI processor grid
  reading bonds ...
  1024 bonds
  reading angles ...
  512 angles
Finding 1-2 1-3 1-4 neighbors ...
  special bond factors lj:    0        0        0       
  special bond factors coul:  0        0        0       
     2 = max # of 1-2 neighbors
     1 = max # of 1-3 neighbors
     1 = max # of 1-4 neighbors
     2 = max # of special neighbors
  special bonds CPU = 0.003 seconds
  read_data CPU = 0.042 seconds

print "Initial configuration loaded."
Initial configuration loaded.
reset_timestep 0
print "Applying shear rate: ${gamma}"
Applying shear rate: 1.0e-7
change_box all triclinic
Changing box ...
  triclinic box = (0 0 0) to (24.89526 24.89526 24.89526) with tilt (0 0 0)
kspace_style pppm/tip4p 1.0e-5

pair_coeff 1 1 0.18521 3.1589 #O-O
pair_coeff * 2 0.0 0.0

bond_coeff 1 0.9572 #O-H
angle_coeff 1 104.52 #H-O-H

group gH2O type 1 2
1536 atoms in group gH2O
group gO type 1
512 atoms in group gO

neighbor 3.0 bin
neigh_modify delay 0 every 1 check yes

timestep 1.0
fix 1 gH2O shake 1.0e-4 100 0 b 1 a 1
Finding SHAKE clusters ...
       0 = # of size 2 clusters
       0 = # of size 3 clusters
       0 = # of size 4 clusters
     512 = # of frozen angles
  find clusters CPU = 0.002 seconds

# # 系统弛豫到平衡态
# fix fnvt_equil all nvt temp ${T} ${T} 100.0
# thermo 1000
# thermo_style custom step temp etotal pe
# thermo_modify flush yes
# run 100000 # 100 ps
# unfix fnvt_equil

# 系统剪切变形

fix fdeform all deform 1 xy erate ${gamma} remap v
fix fdeform all deform 1 xy erate 1.0e-7 remap v
fix fnvt all nvt/sllod temp ${T} ${T} 100.0
fix fnvt all nvt/sllod temp 246 ${T} 100.0
fix fnvt all nvt/sllod temp 246 246 100.0

compute tilt all temp/deform

variable L0_x equal lx
variable L0_y equal ly
variable L0_z equal lz

compute p all pressure NULL virial
variable sxy equal -c_p[4] * 1.01325e-4  # convert to GPa


variable strainInc equal 0.01
variable dt equal 1.0e-15
variable gammaSI equal ${gamma}*1e15
variable gammaSI equal 1.0e-7*1e15
variable stepsPerReset equal ceil(${strainInc}/(${gammaSI}*${dt}))
variable stepsPerReset equal ceil(0.01/(${gammaSI}*${dt}))
variable stepsPerReset equal ceil(0.01/(100000000*${dt}))
variable stepsPerReset equal ceil(0.01/(100000000*1e-15))
print "Steps per reset: ${stepsPerReset}"
Steps per reset: 100000

variable massAll equal mass(all)/6.022e23
variable volCm3 equal vol*1.0e-24
variable density_sys equal v_massAll/v_volCm3
variable tau_pa equal v_sxy * 1e9
variable gamma_s equal ${gamma} * 1e15
variable gamma_s equal 1.0e-7 * 1e15
variable viscosity equal v_tau_pa / v_gamma_s

variable strain equal step*${gammaSI}*${dt}
variable strain equal step*100000000*${dt}
variable strain equal step*100000000*1e-15

thermo 1000
thermo_style custom step temp etotal pe pxy v_sxy v_strain v_viscosity
thermo_modify flush yes

dump traj all custom 500 traj_${gamma}_${T}.lammpstrj id type xu yu zu vx vy vz # 0.5ps
dump traj all custom 500 traj_1.0e-7_${T}.lammpstrj id type xu yu zu vx vy vz 
dump traj all custom 500 traj_1.0e-7_246.lammpstrj id type xu yu zu vx vy vz 
dump_modify traj sort id
fix stress all ave/time 500 1 500 v_strain v_sxy file stress_${gamma}_${T}.data  # 每0.5ps输出一次应力和应变
fix stress all ave/time 500 1 500 v_strain v_sxy file stress_1.0e-7_${T}.data  
fix stress all ave/time 500 1 500 v_strain v_sxy file stress_1.0e-7_246.data  

# compute peratom all stress/atom NULL
# dump stress gO custom 5000 stress_${gamma}_${T}.lammpstrj id type c_peratom[1] c_peratom[2] c_peratom[3] c_peratom[4] c_peratom[5] c_peratom[6]
# dump_modify stress sort id

variable Ttotal equal 5000000 # 5 ns
variable nloops equal ceil(${Ttotal}/(100000))
variable nloops equal ceil(5000000/(100000))
print "Total loops: ${nloops}"
Total loops: 50

variable nloop loop ${nloops}
variable nloop loop 50
label loop_start
run 100000 # 100ps
PPPM initialization ...
  extracting TIP4P info from pair style
  using 12-bit tables for long-range coulomb
  G vector (1/distance) = 0.33392026
  grid = 27 27 27
  stencil order = 5
  estimated absolute RMS force accuracy = 0.0025375515
  estimated relative force accuracy = 7.641761e-06
  using double precision KISS FFT
  3d grid and FFT values/proc = 4576 432
WARNING: Communication cutoff 0 is shorter than a bond length based estimate of 4.4358. This may lead to errors. (../comm.cpp:743)
WARNING: Increasing communication cutoff to 13.6118 for TIP4P pair style (../pair_lj_cut_tip4p_long.cpp:497)
Generated 0 of 1 mixed pair_coeff terms from geometric mixing rule
Neighbor list info ...
  update: every = 1 steps, delay = 0 steps, check = yes
  max neighbors/atom: 2000, page size: 100000
  master list distance cutoff = 12.8092
  ghost atom cutoff = 13.6118
  binsize = 6.4046, bins = 4 4 4
  1 neighbor lists, perpetual/occasional/extra = 1 0 0
  (1) pair lj/cut/tip4p/long, perpetual
      attributes: half, newton on
      pair build: half/bin/newton/tri
      stencil: half/bin/3d/tri
      bin: standard
Per MPI rank memory allocation (min/avg/max) = 8.354 | 8.376 | 8.395 Mbytes
   Step          Temp          TotEng         PotEng          Pxy           v_sxy         v_strain     v_viscosity  
         0   250.06598     -5496.1251     -6258.6685      227.26744     -0.027613896    0             -0.27613896   
      1000   241.35462     -5574.4696     -6310.4488     -134.45046      0.0046604475   0.0001         0.046604475  
      2000   259.65952     -5505.6774     -6297.475       545.94984     -0.054705823    0.0002        -0.54705823   
      3000   236.91481     -5536.0252     -6258.4658     -131.76475      0.0088943829   0.0003         0.088943829  
      4000   244.83525     -5539.2218     -6285.8148     -499.57329      0.060645957    0.0004         0.60645957   
      5000   251.63376     -5539.0189     -6306.343      -407.0539       0.045204548    0.0005         0.45204548   
      6000   237.76868     -5596.5103     -6321.5546     -332.57672      0.025827314    0.0006         0.25827314   
      7000   242.62549     -5569.9368     -6309.7913     -512.32647      0.058013778    0.0007         0.58013778   
      8000   242.25073     -5579.5909     -6318.3027     -563.59493      0.069564471    0.0008         0.69564471   
      9000   250.07579     -5544.2085     -6306.7818      187.97274     -0.020174564    0.0009        -0.20174564   
     10000   243.76285     -5539.8289     -6283.1517     -707.34842      0.068569084    0.001          0.68569084   
     11000   251.20782     -5556.2328     -6322.258       566.24363     -0.044076129    0.0011        -0.44076129   
     12000   250.19377     -5497.3977     -6260.3308     -111.75326      0.0072971227   0.0012         0.072971227  
     13000   239.3162      -5566.6825     -6296.4458     -69.5692       -0.0016625033   0.0013        -0.016625033  
     14000   243.32728     -5528.3316     -6270.3262     -498.76777      0.047973485    0.0014         0.47973485   
     15000   239.24637     -5522.3761     -6251.9265     -293.9761       0.045207184    0.0015         0.45207184   
     16000   257.90222     -5456.0535     -6242.4924      202.09951     -0.015122847    0.0016        -0.15122847   
     17000   240.42862     -5563.2623     -6296.4177     -369.68933      0.035637954    0.0017         0.35637954   
     18000   255.99884     -5525.3064     -6305.9413      546.35839     -0.05220398     0.0018        -0.5220398    
     19000   253.05117     -5494.6711     -6266.3174     -31.031921     -0.0019820781   0.0019        -0.019820781  
     20000   232.0292      -5562.4616     -6270.0042     -175.56017      0.016068898    0.002          0.16068898   
     21000   248.83488     -5520.4578     -6279.2471      366.68746     -0.034865904    0.0021        -0.34865904   
     22000   254.65148     -5547.5502     -6324.0764      285.52555     -0.018635605    0.0022        -0.18635605   
     23000   235.68705     -5553.8812     -6272.5779      258.7591      -0.023091089    0.0023        -0.23091089   
     24000   246.83036     -5497.7127     -6250.3894      168.32355     -0.016822363    0.0024        -0.16822363   
     25000   246.80962     -5510.7976     -6263.4111     -79.545594      0.00090313017  0.0025         0.0090313017 
     26000   245.06027     -5488.5286     -6235.8077     -364.51006      0.048699028    0.0026         0.48699028   
     27000   232.28118     -5605.0377     -6313.3487     -490.4943       0.05138608     0.0027         0.5138608    
     28000   252.5464      -5483.0136     -6253.1207     -787.23856      0.077884605    0.0028         0.77884605   
     29000   242.25877     -5596.0764     -6334.8127      226.61363     -0.029141766    0.0029        -0.29141766   
     30000   242.13101     -5595.021      -6333.3677     -145.00565      0.012997884    0.003          0.12997884   
     31000   250.74018     -5478.3544     -6242.9537     -189.03651      0.016204539    0.0031         0.16204539   
     32000   238.47975     -5559.9214     -6287.1341     -542.71386      0.047701804    0.0032         0.47701804   
     33000   254.71082     -5498.7398     -6275.4469      30.610345     -0.0046776808   0.0033        -0.046776808  
     34000   247.45484     -5526.831      -6281.4121     -303.7548       0.017742873    0.0034         0.17742873   
     35000   239.08323     -5549.5975     -6278.6504     -303.54998      0.029861713    0.0035         0.29861713   
     36000   238.23994     -5565.3376     -6291.819       152.03561     -0.016389314    0.0036        -0.16389314   
     37000   243.89118     -5541.5557     -6285.2698      175.99234     -0.014507759    0.0037        -0.14507759   
     38000   246.10239     -5547.6995     -6298.1564      104.84028     -0.012528292    0.0038        -0.12528292   
     39000   248.65628     -5538.6946     -6296.9392      314.56112     -0.029191993    0.0039        -0.29191993   
     40000   245.44734     -5531.4308     -6279.8902      661.51644     -0.070693856    0.004         -0.70693856   
     41000   245.6244      -5491.935      -6240.9344     -1053.4622      0.097268688    0.0041         0.97268688   
     42000   249.08405     -5514.0755     -6273.6246     -826.33427      0.081507851    0.0042         0.81507851   
     43000   248.54312     -5558.2401     -6316.1397     -479.34306      0.051456618    0.0043         0.51456618   
     44000   236.04004     -5536.345      -6256.1181      227.0889      -0.022762526    0.0044        -0.22762526   
     45000   246.866       -5465.1205     -6217.9059     -116.1471       0.01010265     0.0045         0.1010265    
     46000   242.49698     -5498.4026     -6237.8653      64.044445     -0.016573478    0.0046        -0.16573478   
     47000   246.4689      -5540.2394     -6291.814       662.96355     -0.067268423    0.0047        -0.67268423   
     48000   245.92345     -5525.4004     -6275.3116     -7.0757448      0.00032598335  0.0048         0.0032598335 
     49000   251.00216     -5536.5657     -6301.9638     -318.11667      0.035774987    0.0049         0.35774987   
     50000   246.06428     -5531.232      -6281.5727      1087.7622     -0.10839804     0.005         -1.0839804    
     51000   245.39485     -5535.8495     -6284.1489      25.022255      0.0046965896   0.0051         0.046965896  
     52000   241.77162     -5554.2614     -6291.5122      28.090002     -0.0090828421   0.0052        -0.090828421  
     53000   245.91397     -5534.0828     -6283.9652     -504.43579      0.04866191     0.0053         0.4866191    
     54000   251.89078     -5540.8109     -6308.9188     -308.96816      0.038160421    0.0054         0.38160421   
     55000   234.5927      -5571.33       -6286.6896      110.07003     -0.01507415     0.0055        -0.1507415    
     56000   258.34418     -5519.7462     -6307.5329      45.156638     -0.0028610453   0.0056        -0.028610453  
     57000   239.49612     -5559.6965     -6290.0085      114.66736     -0.012372219    0.0057        -0.12372219   
     58000   250.15109     -5536.382      -6299.1849     -73.492536      0.0098257053   0.0058         0.098257053  
     59000   247.30877     -5522.2649     -6276.4005      277.16925     -0.024012127    0.0059        -0.24012127   
     60000   238.14177     -5549.741      -6275.923      -251.46132      0.037245272    0.006          0.37245272   
     61000   243.37243     -5518.1512     -6260.2835     -72.707293      0.0042167521   0.0061         0.042167521  
     62000   253.02273     -5518.7383     -6290.2978     -233.70393      0.027776167    0.0062         0.27776167   
     63000   244.5014      -5511.7547     -6257.3296     -197.48789      0.011540277    0.0063         0.11540277   
     64000   252.38539     -5477.7967     -6247.4128     -472.92161      0.044656033    0.0064         0.44656033   
     65000   245.47441     -5500.8657     -6249.4077     -828.32023      0.077964124    0.0065         0.77964124   
     66000   244.23753     -5554.5816     -6299.3519     -10.340027     -0.0089721662   0.0066        -0.089721662  
     67000   254.2046      -5466.8242     -6241.9878     -716.04474      0.077467289    0.0067         0.77467289   
     68000   247.26106     -5518.673      -6272.6631     -329.15006      0.038033952    0.0068         0.38033952   
     69000   241.56052     -5534.399      -6271.0061      84.230767     -0.00070687013  0.0069        -0.0070687013 
     70000   246.7366      -5505.8344     -6258.2253     -316.3112       0.044131782    0.007          0.44131782   
     71000   238.43413     -5516.6526     -6243.7262      469.65058     -0.05246359     0.0071        -0.5246359    
     72000   239.51169     -5535.8908     -6266.2502      88.403519     -0.011756164    0.0072        -0.11756164   
     73000   255.11094     -5501.8144     -6279.7417      27.120683     -0.0044744534   0.0073        -0.044744534  
     74000   242.73377     -5547.6202     -6287.8049     -303.35383      0.014039612    0.0074         0.14039612   
     75000   244.29583     -5510.6056     -6255.5536      79.058968     -0.0149049      0.0075        -0.149049     
     76000   246.10836     -5578.0668     -6328.5419      253.76933     -0.023539899    0.0076        -0.23539899   
     77000   240.79953     -5525.691      -6259.9776     -733.09231      0.066058043    0.0077         0.66058043   
     78000   241.09287     -5542.9034     -6278.0845      572.20263     -0.057833825    0.0078        -0.57833825   
     79000   243.04209     -5544.2178     -6285.3427      673.1745      -0.070450734    0.0079        -0.70450734   
     80000   241.12952     -5562.5381     -6297.8309      756.24715     -0.069875888    0.008         -0.69875888   
     81000   249.74892     -5523.9688     -6285.5453      147.11647      0.00055508591  0.0081         0.0055508591 
     82000   250.94007     -5487.7049     -6252.9137     -521.78073      0.047782893    0.0082         0.47782893   
     83000   243.80617     -5558.5299     -6301.9848      559.44004     -0.054661312    0.0083        -0.54661312   
     84000   254.09822     -5475.8372     -6250.6763      391.51945     -0.037898086    0.0084        -0.37898086   
     85000   241.97284     -5516.7911     -6254.6555     -193.91231      0.027408095    0.0085         0.27408095   
     86000   248.75647     -5449.9417     -6208.4919      20.570165     -0.00635201     0.0086        -0.0635201    
     87000   246.09134     -5479.425      -6229.8482     -327.18902      0.022197929    0.0087         0.22197929   
     88000   245.45057     -5490.2348     -6238.7041      341.37796     -0.035140359    0.0088        -0.35140359   
     89000   251.70791     -5443.5378     -6211.088      -698.22841      0.060883788    0.0089         0.60883788   
     90000   237.56529     -5524.9841     -6249.4083      763.51601     -0.081189951    0.009         -0.81189951   
     91000   246.97271     -5444.4779     -6197.5888     -593.76773      0.061701608    0.0091         0.61701608   
     92000   242.68931     -5470.1866     -6210.2358     -624.1658       0.060873316    0.0092         0.60873316   
     93000   250.2049      -5484.4466     -6247.4135      942.04055     -0.097695122    0.0093        -0.97695122   
     94000   249.77441     -5417.0677     -6178.7219     -70.148889      0.012046752    0.0094         0.12046752   
     95000   241.3135      -5518.1215     -6253.9754     -243.45813      0.01661131     0.0095         0.1661131    
     96000   257.94128     -5448.3918     -6234.9499      333.44058     -0.033932976    0.0096        -0.33932976   
     97000   244.04923     -5560.537      -6304.7331      702.87275     -0.069117839    0.0097        -0.69117839   
     98000   247.30451     -5446.5106     -6200.6333     -422.58422      0.042052926    0.0098         0.42052926   
     99000   243.14257     -5524.8992     -6266.3305      330.04363     -0.031627727    0.0099        -0.31627727   
    100000   252.02573     -5493.3925     -6261.9119      1038.4783     -0.09472712     0.01          -0.9472712    
Loop time of 89.5232 on 56 procs for 100000 steps with 1536 atoms

Performance: 96.511 ns/day, 0.249 hours/ns, 1117.029 timesteps/s, 1.716 Matom-step/s
99.7% CPU use with 56 MPI tasks x no OpenMP threads

MPI task timing breakdown:
Section |  min time  |  avg time  |  max time  |%varavg| %total
---------------------------------------------------------------
Pair    | 22.178     | 24.943     | 27.151     |  20.3 | 27.86
Bond    | 0.010746   | 0.014226   | 0.021766   |   1.6 |  0.02
Kspace  | 34.745     | 36.988     | 39.6       |  16.8 | 41.32
Neigh   | 1.8778     | 1.8802     | 1.8828     |   0.1 |  2.10
Comm    | 9.7324     | 10.008     | 10.348     |   4.9 | 11.18
Output  | 0.081217   | 0.12686    | 0.1645     |   6.4 |  0.14
Modify  | 10.77      | 12.878     | 14.779     |  31.4 | 14.38
Other   |            | 2.685      |            |       |  3.00

Nlocal:        27.4286 ave          37 max          21 min
Histogram: 4 4 6 12 8 16 5 0 0 1
Nghost:        4055.54 ave        4161 max        3979 min
Histogram: 6 5 6 8 10 9 4 5 2 1
Neighs:        12010.8 ave       15997 max        9209 min
Histogram: 4 4 6 12 9 14 3 3 0 1

Total # of neighbors = 672605
Ave neighs/atom = 437.89388
Ave special neighs/atom = 2
Neighbor list builds = 1107
Dangerous builds = 0
kspace_style pppm/tip4p 1.0e-5
next nloop
jump SELF loop_start
run 100000 # 100ps
PPPM initialization ...
  extracting TIP4P info from pair style
  using 12-bit tables for long-range coulomb
  G vector (1/distance) = 0.33366179
  grid = 27 27 27
  stencil order = 5
  estimated absolute RMS force accuracy = 0.0025773709
  estimated relative force accuracy = 7.7616761e-06
  using double precision KISS FFT
  3d grid and FFT values/proc = 4576 432
Generated 0 of 1 mixed pair_coeff terms from geometric mixing rule
Per MPI rank memory allocation (min/avg/max) = 9.611 | 9.632 | 9.651 Mbytes
   Step          Temp          TotEng         PotEng          Pxy           v_sxy         v_strain     v_viscosity  
    100000   252.02573     -5493.3923     -6261.9117      1038.6352     -0.094743015    0.01          -0.94743015   
    101000   247.36944     -5472.4138     -6226.7344     -415.94322      0.045714696    0.0101         0.45714696   
    102000   243.50155     -5475.951      -6218.477      -104.01974      0.0023734646   0.0102         0.023734646  
    103000   248.52969     -5497.4129     -6255.2715      548.63049     -0.051158597    0.0103        -0.51158597   
    104000   240.30645     -5535.3799     -6268.1628      89.733086     -0.0049684927   0.0104        -0.049684927  
    105000   252.15452     -5438.2916     -6207.2037     -1249.0046      0.1313784      0.0105         1.313784     
    106000   245.46384     -5514.6808     -6263.1905     -381.73834      0.037366228    0.0106         0.37366228   
    107000   237.89547     -5544.9136     -6270.3446     -686.925        0.068047784    0.0107         0.68047784   
    108000   238.45437     -5523.7781     -6250.9134      39.482246     -0.00068428305  0.0108        -0.0068428305 
    109000   247.30371     -5475.9363     -6230.0565      482.19371     -0.044957207    0.0109        -0.44957207   
    110000   249.86394     -5468.2798     -6230.2071     -303.42145      0.036679385    0.011          0.36679385   
    111000   243.13589     -5530.5548     -6271.9657      113.63212     -0.012258367    0.0111        -0.12258367   
    112000   247.61331     -5492.3849     -6247.4492     -482.90021      0.048432187    0.0112         0.48432187   
    113000   250.03052     -5520.2337     -6282.6689      735.21365     -0.069117918    0.0113        -0.69117918   
    114000   245.75059     -5519.453      -6268.8372     -0.043203296    0.014230878    0.0114         0.14230878   
    115000   247.55568     -5502.6325     -6257.521      -93.658756      0.0048399745   0.0115         0.048399745  
    116000   256.58383     -5508.1428     -6290.5615      72.412706     -0.0052451363   0.0116        -0.052451363  
    117000   250.55024     -5510.0615     -6274.0815     -1078.1649      0.11566216     0.0117         1.1566216    
    118000   238.27412     -5555.5766     -6282.1622      135.9838       0.00069792216  0.0118         0.0069792216 
    119000   234.0948      -5547.3789     -6261.2203      371.53299     -0.033909093    0.0119        -0.33909093   
    120000   240.88475     -5552.017      -6286.5635      858.66864     -0.072234993    0.012         -0.72234993   
    121000   246.51494     -5520.215      -6271.93        50.915559     -0.0062277665   0.0121        -0.062277665  
    122000   240.98988     -5540.7529     -6275.6199      195.89135     -0.025108486    0.0122        -0.25108486   
    123000   249.91997     -5554.2882     -6316.3863     -529.81403      0.05774699     0.0123         0.5774699    
    124000   256.17142     -5536.5864     -6317.7475     -66.766872      0.019229901    0.0124         0.19229901   
    125000   240.49682     -5522.0374     -6255.4009     -78.362388      0.0068911683   0.0125         0.068911683  
    126000   259.38972     -5472.6226     -6263.5975     -222.40132      0.015355932    0.0126         0.15355932   
    127000   243.35391     -5529.8626     -6271.9384     -55.319972     -0.0019852735   0.0127        -0.019852735  
    128000   243.30226     -5598.5265     -6340.4448      212.61239     -0.031983487    0.0128        -0.31983487   
    129000   244.29531     -5566.7842     -6311.7306      328.03013     -0.031030514    0.0129        -0.31030514   
    130000   240.98871     -5583.0886     -6317.952       212.49197     -0.012629527    0.013         -0.12629527   
    131000   242.74395     -5579.2136     -6319.4294      314.93154     -0.027093113    0.0131        -0.27093113   
    132000   243.66617     -5556.4391     -6299.4671     -509.16225      0.051334538    0.0132         0.51334538   
    133000   247.73835     -5555.096      -6310.5416      471.12267     -0.044924393    0.0133        -0.44924393   
    134000   256.79211     -5511.2754     -6294.3292      197.48267     -0.031194781    0.0134        -0.31194781   
    135000   234.86261     -5572.2863     -6288.469      -43.924969      0.0057516711   0.0135         0.057516711  
    136000   246.77325     -5565.4867     -6317.9893      721.41643     -0.081129346    0.0136        -0.81129346   
    137000   247.77072     -5552.8102     -6308.3545      276.14437     -0.022554442    0.0137        -0.22554442   
    138000   248.92459     -5534.6498     -6293.7126      181.3062      -0.018095572    0.0138        -0.18095572   
    139000   253.40337     -5516.9614     -6289.6817     -704.06735      0.075374324    0.0139         0.75374324   
    140000   231.40532     -5591.4979     -6297.138      -69.903376      0.0039536174   0.014          0.039536174  
    141000   247.69586     -5508.0598     -6263.3758     -356.34287      0.030674669    0.0141         0.30674669   
    142000   246.27374     -5570.7586     -6321.7381      837.00939     -0.084474967    0.0142        -0.84474967   
    143000   239.82323     -5536.009      -6267.3184     -6.3358494      0.003482999    0.0143         0.03482999   
    144000   246.18752     -5501.2598     -6251.9763     -110.34745      0.0046481709   0.0144         0.046481709  
    145000   239.43089     -5512.811      -6242.924      -590.99688      0.05217078     0.0145         0.5217078    
    146000   249.12452     -5507.5265     -6267.199      -122.84666      0.024531881    0.0146         0.24531881   
    147000   235.36786     -5593.8914     -6311.6148     -466.78214      0.046439686    0.0147         0.46439686   
    148000   244.8503      -5542.5117     -6289.1505      166.90583     -0.008239804    0.0148        -0.08239804   
    149000   246.48312     -5517.6588     -6269.2767     -1260.2378      0.12963674     0.0149         1.2963674    
    150000   247.9571      -5506.9536     -6263.0662     -62.67203       0.0056706846   0.015          0.056706846  
    151000   235.62912     -5559.9969     -6278.517      -98.796156      0.0081721061   0.0151         0.081721061  
    152000   246.63162     -5486.462      -6238.5327     -48.030082      0.0049083207   0.0152         0.049083207  
    153000   245.24132     -5527.968      -6275.7992     -476.53972      0.04461852     0.0153         0.4461852    
    154000   249.35321     -5465.5464     -6225.9162     -270.14695      0.026324242    0.0154         0.26324242   
    155000   239.82308     -5579.3617     -6310.6707      69.493254     -0.0018470508   0.0155        -0.018470508  
    156000   248.3997      -5521.8756     -6279.3378     -425.39374      0.046316364    0.0156         0.46316364   
    157000   249.3789      -5561.7291     -6322.1773      534.17976     -0.054416319    0.0157        -0.54416319   
    158000   253.23461     -5535.9425     -6308.1482      98.831506      0.0025148049   0.0158         0.025148049  
    159000   230.28041     -5581.4657     -6283.6756      449.28228     -0.043047997    0.0159        -0.43047997   
    160000   249.41937     -5511.7444     -6272.3161     -149.93885      0.024243168    0.016          0.24243168   
    161000   233.15168     -5548.766      -6259.7314      648.09057     -0.073330327    0.0161        -0.73330327   
    162000   242.29975     -5511.8864     -6250.7477      330.03509     -0.025255608    0.0162        -0.25255608   
    163000   237.38625     -5557.278      -6281.1562      287.51187     -0.034276164    0.0163        -0.34276164   
    164000   249.53068     -5551.9784     -6312.8894     -513.04662      0.048281641    0.0164         0.48281641   
    165000   251.30408     -5530.1503     -6296.4691     -306.78772      0.038329474    0.0165         0.38329474   
    166000   253.73196     -5547.7637     -6321.486       900.63498     -0.090101725    0.0166        -0.90101725   
    167000   251.27351     -5506.6262     -6272.8518     -150.44433      0.011245046    0.0167         0.11245046   
    168000   246.70291     -5590.2486     -6342.5367      74.309476     -0.00635059     0.0168        -0.0635059    
    169000   263.92055     -5440.2912     -6245.0822     -263.52978      0.030147146    0.0169         0.30147146   
    170000   232.91336     -5556.5761     -6266.8148      556.48554     -0.062701395    0.017         -0.62701395   
    171000   244.81574     -5550.5341     -6297.0675      7.0409143     -0.0031841814   0.0171        -0.031841814  
    172000   247.22448     -5547.6559     -6301.5345     -24.804121     -0.0062039652   0.0172        -0.062039652  
    173000   258.08683     -5483.1001     -6270.102      -208.56906      0.013139513    0.0173         0.13139513   
    174000   249.17232     -5503.0492     -6262.8674      668.72397     -0.076586074    0.0174        -0.76586074   
    175000   252.50193     -5485.0618     -6255.0333      273.65796     -0.029610143    0.0175        -0.29610143   
    176000   245.21753     -5511.9827     -6259.7414     -1022.3325      0.096474858    0.0176         0.96474858   
    177000   238.7988      -5537.283      -6265.4685      700.15189     -0.062546006    0.0177        -0.62546006   
    178000   259.45095     -5472.0478     -6263.2094     -264.05696      0.032226396    0.0178         0.32226396   
    179000   238.8147      -5534.0153     -6262.2494      156.08556     -0.016792746    0.0179        -0.16792746   
    180000   246.65777     -5529.6345     -6281.785       341.30477     -0.032584669    0.018         -0.32584669   
    181000   242.56245     -5489.4239     -6229.0862      659.32098     -0.063963894    0.0181        -0.63963894   
    182000   246.67248     -5529.4507     -6281.646      -521.37192      0.060908904    0.0182         0.60908904   
    183000   239.29548     -5485.3224     -6215.0226     -302.54591      0.032059537    0.0183         0.32059537   
    184000   246.26372     -5520.8172     -6271.7661     -704.5726       0.066559051    0.0184         0.66559051   
    185000   239.89376     -5599.6575     -6331.182      -322.23672      0.032354559    0.0185         0.32354559   
    186000   247.94859     -5507.1733     -6263.26       -289.25903      0.024910131    0.0186         0.24910131   
    187000   239.97619     -5552.1779     -6283.9537      86.92003      -0.012013266    0.0187        -0.12013266   
    188000   256.61013     -5494.7295     -6277.2284     -849.16013      0.081096441    0.0188         0.81096441   
    189000   251.76644     -5402.7328     -6170.4615      625.38529     -0.070966257    0.0189        -0.70966257   
    190000   236.98037     -5536.5747     -6259.2152     -94.765295      0.0084631631   0.019          0.084631631  
    191000   249.07152     -5563.064      -6322.5749     -150.05698      0.01552888     0.0191         0.1552888    
    192000   245.58151     -5534.4757     -6283.3442     -750.56315      0.073288747    0.0192         0.73288747   
    193000   237.51326     -5544.1383     -6268.4038      631.21065     -0.069918237    0.0193        -0.69918237   
    194000   246.91714     -5528.6967     -6281.6381     -240.23508      0.0205239      0.0194         0.205239     
    195000   247.28806     -5533.8963     -6287.9688      472.08478     -0.049910706    0.0195        -0.49910706   
    196000   245.78027     -5483.0421     -6232.5167      275.69094     -0.028734293    0.0196        -0.28734293   
    197000   248.36469     -5478.5651     -6235.9206     -397.3091       0.032745765    0.0197         0.32745765   
    198000   247.66785     -5522.7968     -6278.0273     -558.77737      0.047365222    0.0198         0.47365222   
    199000   249.84527     -5475.8974     -6237.7677     -551.07765      0.05389923     0.0199         0.5389923    
    200000   249.80231     -5542.575      -6304.3144      143.28976     -0.013516942    0.02          -0.13516942   
Loop time of 90.0565 on 56 procs for 100000 steps with 1536 atoms

Performance: 95.940 ns/day, 0.250 hours/ns, 1110.414 timesteps/s, 1.706 Matom-step/s
99.8% CPU use with 56 MPI tasks x no OpenMP threads

MPI task timing breakdown:
Section |  min time  |  avg time  |  max time  |%varavg| %total
---------------------------------------------------------------
Pair    | 22.731     | 24.973     | 27.21      |  18.1 | 27.73
Bond    | 0.010668   | 0.014303   | 0.022787   |   1.7 |  0.02
Kspace  | 35.132     | 37.373     | 39.549     |  14.4 | 41.50
Neigh   | 1.9514     | 1.9551     | 1.9582     |   0.1 |  2.17
Comm    | 9.7014     | 9.991      | 10.31      |   4.7 | 11.09
Output  | 0.077942   | 0.12173    | 0.15652    |   6.1 |  0.14
Modify  | 10.82      | 12.921     | 14.922     |  31.6 | 14.35
Other   |            | 2.706      |            |       |  3.00

Nlocal:        27.4286 ave          37 max          13 min
Histogram: 1 0 1 5 6 12 10 17 2 2
Nghost:        4031.39 ave        4136 max        3932 min
Histogram: 1 4 6 9 9 8 11 4 1 3
Neighs:        12008.8 ave       16251 max        5745 min
Histogram: 1 1 0 6 7 10 12 15 2 2

Total # of neighbors = 672493
Ave neighs/atom = 437.82096
Ave special neighs/atom = 2
Neighbor list builds = 1127
Dangerous builds = 0
kspace_style pppm/tip4p 1.0e-5
next nloop
jump SELF loop_start
run 100000 # 100ps
PPPM initialization ...
  extracting TIP4P info from pair style
  using 12-bit tables for long-range coulomb
  G vector (1/distance) = 0.33331237
  grid = 27 27 27
  stencil order = 5
  estimated absolute RMS force accuracy = 0.0026251837
  estimated relative force accuracy = 7.9056627e-06
  using double precision KISS FFT
  3d grid and FFT values/proc = 4576 432
Generated 0 of 1 mixed pair_coeff terms from geometric mixing rule
Per MPI rank memory allocation (min/avg/max) = 9.611 | 9.632 | 9.651 Mbytes
   Step          Temp          TotEng         PotEng          Pxy           v_sxy         v_strain     v_viscosity  
    200000   249.80223     -5542.5759     -6304.315       143.46503     -0.01353475     0.02          -0.1353475    
    201000   242.0136      -5517.626      -6255.6147     -300.21044      0.02618472     0.0201         0.2618472    
    202000   251.07927     -5534.9715     -6300.6048      11.56919       0.01105941     0.0202         0.1105941    
    203000   242.52548     -5533.4326     -6272.9822     -153.14106      0.01520411     0.0203         0.1520411    
    204000   232.94504     -5529.3904     -6239.7257     -821.46472      0.082624646    0.0204         0.82624646   
    205000   253.64196     -5493.8102     -6267.2581      358.73514     -0.03720688     0.0205        -0.3720688    
    206000   240.86361     -5532.6078     -6267.0897     -687.8027       0.072375772    0.0206         0.72375772   
    207000   252.20787     -5437.0792     -6206.1539     -508.72248      0.04164281     0.0207         0.4164281    
    208000   247.79969     -5496.8039     -6252.4366      937.40764     -0.096816286    0.0208        -0.96816286   
    209000   246.01869     -5475.7463     -6225.948       335.76655     -0.033624163    0.0209        -0.33624163   
    210000   247.00369     -5532.9441     -6286.1494     -20.879651     -0.00078122471  0.021         -0.0078122471 
    211000   238.27392     -5567.7497     -6294.3347      140.58198     -0.0070296484   0.0211        -0.070296484  
    212000   245.95721     -5474.9975     -6225.0117      63.623425     -0.011613695    0.0212        -0.11613695   
    213000   253.14118     -5492.4932     -6264.414      -729.078        0.073100816    0.0213         0.73100816   
    214000   236.98199     -5552.8688     -6275.5143     -176.38909      0.022460851    0.0214         0.22460851   
    215000   244.00713     -5596.2465     -6340.3142     -391.15626      0.042639747    0.0215         0.42639747   
    216000   248.52389     -5515.5115     -6273.3524      479.67258     -0.048427089    0.0216        -0.48427089   
    217000   243.50144     -5564.8532     -6307.3789      5.1559045      0.001021976    0.0217         0.01021976   
    218000   243.04065     -5561.9605     -6303.081      -329.82433      0.025277225    0.0218         0.25277225   
    219000   246.87337     -5581.5889     -6334.3968      716.04339     -0.058358143    0.0219        -0.58358143   
    220000   251.63195     -5566.9636     -6334.2821     -287.03541      0.02564684     0.022          0.2564684    
    221000   239.3887      -5588.9863     -6318.9707      106.2384      -0.0049275339   0.0221        -0.049275339  
    222000   247.47818     -5571.4295     -6326.0817      632.57742     -0.063308147    0.0222        -0.63308147   
    223000   248.92266     -5584.6552     -6343.7121     -652.04571      0.063974149    0.0223         0.63974149   
    224000   257.12499     -5565.931      -6349.9998     -291.91761      0.026397963    0.0224         0.26397963   
    225000   234.62222     -5608.8372     -6324.2869      395.02109     -0.036018613    0.0225        -0.36018613   
    226000   251.55355     -5570.5656     -6337.6451     -960.38986      0.091147108    0.0226         0.91147108   
    227000   245.63181     -5591.695      -6340.7169      280.18326     -0.023720362    0.0227        -0.23720362   
    228000   247.45594     -5558.3021     -6312.8865     -215.93011      0.028078283    0.0228         0.28078283   
    229000   253.15177     -5551.1798     -6323.1329      664.89188     -0.063252742    0.0229        -0.63252742   
    230000   253.2868      -5549.3339     -6321.6987     -514.80427      0.050041687    0.023          0.50041687   
    231000   240.33954     -5525.6188     -6258.5027     -563.30296      0.057122949    0.0231         0.57122949   
    232000   250.77527     -5538.2737     -6302.98       -216.75381      0.018504102    0.0232         0.18504102   
    233000   249.16625     -5507.0205     -6266.8203      461.58733     -0.03909793     0.0233        -0.3909793    
    234000   242.80323     -5506.2534     -6246.6499      108.73558     -0.014848443    0.0234        -0.14848443   
    235000   245.1744      -5515.7059     -6263.333       210.71429     -0.015053378    0.0235        -0.15053378   
    236000   256.5248      -5515.561      -6297.7997     -217.3008       0.014882377    0.0236         0.14882377   
    237000   245.59984     -5591.4899     -6340.4144      688.29404     -0.070478033    0.0237        -0.70478033   
    238000   246.9502      -5543.4357     -6296.4779      59.00731      -0.010643752    0.0238        -0.10643752   
    239000   240.55843     -5553.0663     -6286.6176     -47.420666      0.001045771    0.0239         0.01045771   
    240000   253.18017     -5551.5223     -6323.562       617.94659     -0.062429122    0.024         -0.62429122   
    241000   251.31883     -5499.3879     -6265.7516      69.933276     -0.012362996    0.0241        -0.12362996   
    242000   248.79787     -5493.9797     -6252.6562      200.91663     -0.028354064    0.0242        -0.28354064   
    243000   262.45453     -5518.3353     -6318.656       394.10739     -0.039469678    0.0243        -0.39469678   
    244000   248.88072     -5558.6599     -6317.589      -23.195342     -0.011142489    0.0244        -0.11142489   
    245000   233.30124     -5600.3033     -6311.7248     -376.12544      0.037567246    0.0245         0.37567246   
    246000   264.59045     -5434.4297     -6241.2635     -907.79194      0.085309558    0.0246         0.85309558   
    247000   237.13345     -5607.7894     -6330.8967      409.67627     -0.040235368    0.0247        -0.40235368   
    248000   252.99984     -5492.8393     -6264.3291     -501.18074      0.060938612    0.0248         0.60938612   
    249000   251.45148     -5535.7708     -6302.5391      210.76995     -0.020002751    0.0249        -0.20002751   
    250000   245.67755     -5553.8597     -6303.0211      59.385563     -0.011902449    0.025         -0.11902449   
    251000   244.04677     -5503.099      -6247.2875     -440.55443      0.049148888    0.0251         0.49148888   
    252000   252.28184     -5477.9936     -6247.2939     -298.36876      0.035561672    0.0252         0.35561672   
    253000   237.38424     -5575.2635     -6299.1356     -364.4023       0.03487101     0.0253         0.3487101    
    254000   251.78813     -5446.8141     -6214.6089     -115.52985      0.013206301    0.0254         0.13206301   
    255000   240.34157     -5540.2738     -6273.1638     -538.47276      0.049534248    0.0255         0.49534248   
    256000   252.17314     -5497.6088     -6266.5776     -214.22392      0.013477224    0.0256         0.13477224   
    257000   237.90596     -5544.2395     -6269.7025     -277.21759      0.038363028    0.0257         0.38363028   
    258000   258.26578     -5518.2717     -6305.8193     -362.82077      0.037278898    0.0258         0.37278898   
    259000   248.27906     -5517.0483     -6274.1427     -618.39964      0.058720743    0.0259         0.58720743   
    260000   249.22733     -5525.9537     -6285.9397      255.62703     -0.030677866    0.026         -0.30677866   
    261000   258.29685     -5499.899      -6287.5413      590.06159     -0.057463326    0.0261        -0.57463326   
    262000   248.63716     -5558.8472     -6317.0335      533.32867     -0.060302879    0.0262        -0.60302879   
    263000   251.79674     -5480.8349     -6248.656      -556.47706      0.061013389    0.0263         0.61013389   
    264000   250.94719     -5545.8472     -6311.0777     -1026.6022      0.095451045    0.0264         0.95451045   
    265000   247.23312     -5559.1492     -6313.0541     -372.08326      0.031136184    0.0265         0.31136184   
    266000   250.96072     -5518.0585     -6283.3302      8.7812529     -0.0066436434   0.0266        -0.066436434  
    267000   246.53645     -5566.1635     -6317.944      -936.49365      0.094473202    0.0267         0.94473202   
    268000   235.10406     -5566.675      -6283.594      -260.70011      0.031822728    0.0268         0.31822728   
    269000   245.33658     -5551.2655     -6299.3872     -429.60472      0.051782401    0.0269         0.51782401   
    270000   245.21319     -5556.5283     -6304.2738     -408.86081      0.043167532    0.027          0.43167532   
    271000   256.04633     -5569.8125     -6350.5922     -796.97109      0.076804849    0.0271         0.76804849   
    272000   249.06452     -5544.8497     -6304.3393     -563.21657      0.048625689    0.0272         0.48625689   
    273000   248.61444     -5588.9842     -6347.1013     -384.57569      0.044742751    0.0273         0.44742751   
    274000   252.85304     -5533.1051     -6304.1473      66.613476     -0.011766173    0.0274        -0.11766173   
    275000   242.27464     -5565.0231     -6303.8078     -950.5308       0.088582116    0.0275         0.88582116   
    276000   242.93958     -5549.614      -6290.4263      463.64199     -0.044669852    0.0276        -0.44669852   
    277000   241.97221     -5573.905      -6311.7675      314.1612      -0.027247581    0.0277        -0.27247581   
    278000   245.1439      -5541.9383     -6289.4724     -147.84553      0.0074109926   0.0278         0.074109926  
    279000   243.62137     -5547.4276     -6290.319      -663.29211      0.06957532     0.0279         0.6957532    
    280000   232.36941     -5609.0935     -6317.6735     -820.2561       0.080990564    0.028          0.80990564   
    281000   248.75532     -5498.5067     -6257.0534     -110.8766       0.0050056594   0.0281         0.050056594  
    282000   236.32515     -5556.285      -6276.9275     -730.97629      0.075017618    0.0282         0.75017618   
    283000   247.22394     -5509.1698     -6263.0468     -420.32684      0.036893575    0.0283         0.36893575   
    284000   246.97387     -5505.9475     -6259.0619      41.24586       0.0025630759   0.0284         0.025630759  
    285000   258.62826     -5443.134      -6231.787      -452.37081      0.046505881    0.0285         0.46505881   
    286000   233.43702     -5525.688      -6237.5236      194.43342     -0.020249984    0.0286        -0.20249984   
    287000   252.7605      -5444.953      -6215.7129     -258.07852      0.016978707    0.0287         0.16978707   
    288000   247.3977      -5517.6482     -6272.055      -756.02478      0.072360278    0.0288         0.72360278   
    289000   250.22065     -5517.8624     -6280.8775     -131.1783       0.011790397    0.0289         0.11790397   
    290000   239.97512     -5587.5873     -6319.3599     -173.10653      0.0049798979   0.029          0.049798979  
    291000   251.70529     -5540.9154     -6308.4576      308.60675     -0.038977909    0.0291        -0.38977909   
    292000   246.15057     -5513.6438     -6264.2476      18.707847     -0.011022767    0.0292        -0.11022767   
    293000   243.1832      -5522.4624     -6264.0176      116.09266     -0.016198781    0.0293        -0.16198781   
    294000   240.82217     -5561.137      -6295.4926      339.87463     -0.042806077    0.0294        -0.42806077   
    295000   251.04977     -5511.6409     -6277.1843     -463.0816       0.042639124    0.0295         0.42639124   
    296000   238.11706     -5510.4725     -6236.5792     -549.04486      0.054014848    0.0296         0.54014848   
    297000   242.37661     -5520.1306     -6259.2263     -265.23202      0.026605914    0.0297         0.26605914   
    298000   249.31689     -5520.6886     -6280.9477     -562.66886      0.054961798    0.0298         0.54961798   
    299000   243.24375     -5548.6462     -6290.386      -1129.5839      0.10837304     0.0299         1.0837304    
    300000   259.79316     -5517.9255     -6310.1306     -324.95693      0.02113131     0.03           0.2113131    
Loop time of 90.0843 on 56 procs for 100000 steps with 1536 atoms

Performance: 95.910 ns/day, 0.250 hours/ns, 1110.071 timesteps/s, 1.705 Matom-step/s
99.8% CPU use with 56 MPI tasks x no OpenMP threads

MPI task timing breakdown:
Section |  min time  |  avg time  |  max time  |%varavg| %total
---------------------------------------------------------------
Pair    | 21.938     | 24.994     | 27.515     |  23.1 | 27.75
Bond    | 0.010856   | 0.014286   | 0.021798   |   1.7 |  0.02
Kspace  | 35.002     | 37.511     | 40.439     |  18.4 | 41.64
Neigh   | 1.8499     | 1.8531     | 1.8552     |   0.1 |  2.06
Comm    | 9.7256     | 10.015     | 10.29      |   4.9 | 11.12
Output  | 0.076747   | 0.12044    | 0.15554    |   6.1 |  0.13
Modify  | 10.803     | 12.909     | 14.868     |  31.4 | 14.33
Other   |            | 2.667      |            |       |  2.96

Nlocal:        27.4286 ave          34 max          19 min
Histogram: 1 2 2 5 15 4 10 6 7 4
Nghost:        4036.79 ave        4104 max        3984 min
Histogram: 3 4 12 6 9 7 6 3 4 2
Neighs:        12009.6 ave       15068 max        8302 min
Histogram: 1 2 2 9 11 10 5 10 3 3

Total # of neighbors = 672540
Ave neighs/atom = 437.85156
Ave special neighs/atom = 2
Neighbor list builds = 1079
Dangerous builds = 0
kspace_style pppm/tip4p 1.0e-5
next nloop
jump SELF loop_start
run 100000 # 100ps
PPPM initialization ...
  extracting TIP4P info from pair style
  using 12-bit tables for long-range coulomb
  G vector (1/distance) = 0.3330125
  grid = 27 27 27
  stencil order = 5
  estimated absolute RMS force accuracy = 0.0026738011
  estimated relative force accuracy = 8.0520727e-06
  using double precision KISS FFT
  3d grid and FFT values/proc = 4576 432
Generated 0 of 1 mixed pair_coeff terms from geometric mixing rule
Per MPI rank memory allocation (min/avg/max) = 9.611 | 9.632 | 9.652 Mbytes
   Step          Temp          TotEng         PotEng          Pxy           v_sxy         v_strain     v_viscosity  
    300000   259.79317     -5517.9243     -6310.1295     -324.6875       0.021103898    0.03           0.21103898   
    301000   237.99745     -5547.5526     -6273.2946     -895.7126       0.079663996    0.0301         0.79663996   
    302000   253.99193     -5472.3747     -6246.8898      687.3403      -0.063332578    0.0302        -0.63332578   
    303000   247.39968     -5524.0243     -6278.4371     -219.5086       0.026195877    0.0303         0.26195877   
    304000   257.36153     -5471.5514     -6256.3416     -8.2999176     -0.003580649    0.0304        -0.03580649   
    305000   237.91839     -5552.0992     -6277.6001      360.46654     -0.0405166      0.0305        -0.405166     
    306000   242.96266     -5534.7506     -6275.6334     -283.56497      0.0233254      0.0306         0.233254     
    307000   243.13092     -5542.5933     -6283.9891     -712.90929      0.065474463    0.0307         0.65474463   
    308000   251.36767     -5489.6641     -6256.1767      586.17292     -0.056660928    0.0308        -0.56660928   
    309000   244.4477      -5543.8903     -6289.3014      389.31902     -0.02872083     0.0309        -0.2872083    
    310000   258.84643     -5473.5519     -6262.8701      838.7772      -0.090885044    0.031         -0.90885044   
    311000   248.35153     -5497.8096     -6255.125      -260.17454      0.021983453    0.0311         0.21983453   
    312000   254.21908     -5438.447      -6213.6547      789.89192     -0.075619313    0.0312        -0.75619313   
    313000   241.47294     -5518.4813     -6254.8213     -7.3022939     -0.0048948109   0.0313        -0.048948109  
    314000   242.43078     -5509.8821     -6249.1429      375.94822     -0.031507609    0.0314        -0.31507609   
    315000   250.91327     -5491.3431     -6256.4701      199.8177      -0.011592035    0.0315        -0.11592035   
    316000   255.44051     -5497.2827     -6276.215      -333.90799      0.034898275    0.0316         0.34898275   
    317000   232.41814     -5590.4804     -6299.209      -182.50011      0.010510091    0.0317         0.10510091   
    318000   248.02373     -5494.316      -6250.6318     -195.43501      0.021506144    0.0318         0.21506144   
    319000   243.91589     -5546.187      -6289.9765      1281.1303     -0.12548742     0.0319        -1.2548742    
    320000   244.00356     -5556.5172     -6300.5741      695.97297     -0.069000394    0.032         -0.69000394   
    321000   237.6159      -5555.0845     -6279.6629     -366.75158      0.039947337    0.0321         0.39947337   
    322000   246.15021     -5514.4808     -6265.0836      1181.2788     -0.12436531     0.0322        -1.2436531    
    323000   252.25767     -5511.1498     -6280.3765     -295.07136      0.023692727    0.0323         0.23692727   
    324000   252.29737     -5500.0506     -6269.3983     -255.19966      0.025145218    0.0324         0.25145218   
    325000   249.31783     -5531.7834     -6292.0453     -1219.9053      0.12667461     0.0325         1.2667461    
    326000   247.50024     -5525.5248     -6280.2443     -377.21428      0.044849869    0.0326         0.44849869   
    327000   249.60562     -5450.9294     -6212.069       153.94055     -0.0085586592   0.0327        -0.085586592  
    328000   242.93738     -5492.9564     -6233.7621      209.40159     -0.031607088    0.0328        -0.31607088   
    329000   240.41586     -5551.9976     -6285.1142      259.71909     -0.018561741    0.0329        -0.18561741   
    330000   254.88648     -5457.9596     -6235.2024     -81.834167      0.014270568    0.033          0.14270568   
    331000   240.49981     -5537.6669     -6271.0395      113.19261     -0.0058793843   0.0331        -0.058793843  
    332000   251.68038     -5461.4017     -6228.868       552.1498      -0.052271302    0.0332        -0.52271302   
    333000   244.03033     -5456.3302     -6200.4687     -439.01731      0.041346102    0.0333         0.41346102   
    334000   240.72609     -5533.7412     -6267.8039     -504.66953      0.056458334    0.0334         0.56458334   
    335000   248.44016     -5514.2579     -6271.8436      612.57303     -0.058181346    0.0335        -0.58181346   
    336000   253.77017     -5457.0526     -6230.8914     -210.6671       0.016935396    0.0336         0.16935396   
    337000   245.44111     -5513.8237     -6262.2641      311.38271     -0.033598304    0.0337        -0.33598304   
    338000   260.84197     -5451.2202     -6246.6235      286.84859     -0.034776624    0.0338        -0.34776624   
    339000   235.36321     -5571.9464     -6289.6556      552.14098     -0.056595648    0.0339        -0.56595648   
    340000   258.50422     -5439.4392     -6227.7139      663.74766     -0.053746931    0.034         -0.53746931   
    341000   254.13258     -5503.0183     -6277.9622      318.58382     -0.041549435    0.0341        -0.41549435   
    342000   252.65311     -5505.3809     -6275.8134     -363.81423      0.030748965    0.0342         0.30748965   
    343000   248.51318     -5519.4106     -6277.2189      603.62153     -0.047433243    0.0343        -0.47433243   
    344000   240.07457     -5533.6022     -6265.6781      1055.9505     -0.11040658     0.0344        -1.1040658    
    345000   251.32018     -5546.6551     -6313.023      -285.08382      0.026574355    0.0345         0.26574355   
    346000   250.79386     -5468.318      -6233.0809      156.4263      -0.0060822684   0.0346        -0.060822684  
    347000   240.07914     -5584.996      -6317.0858      169.24013     -0.021122621    0.0347        -0.21122621   
    348000   237.91531     -5521.4622     -6246.9537      118.12231     -0.014017261    0.0348        -0.14017261   
    349000   257.68276     -5519.956      -6305.7257      191.60019     -0.012524192    0.0349        -0.12524192   
    350000   250.12008     -5517.7475     -6280.4559     -607.89818      0.056296948    0.035          0.56296948   
    351000   243.59525     -5540.2968     -6283.1086      929.50704     -0.080878954    0.0351        -0.80878954   
    352000   248.05923     -5540.6488     -6297.0728     -159.08329      0.011597497    0.0352         0.11597497   
    353000   241.73845     -5546.2235     -6283.3732     -588.01211      0.064281982    0.0353         0.64281982   
    354000   246.33162     -5571.365      -6322.5209      201.73708     -0.015260841    0.0354        -0.15260841   
    355000   246.14711     -5545.8118     -6296.4051      806.07562     -0.073688636    0.0355        -0.73688636   
    356000   239.6933      -5507.8228     -6238.736       494.1766      -0.061061772    0.0356        -0.61061772   
    357000   245.72513     -5519.8813     -6269.1878     -83.623108      0.0084032782   0.0357         0.084032782  
    358000   247.4539      -5551.1293     -6305.7075      30.881132     -0.015742707    0.0358        -0.15742707   
    359000   259.96766     -5471.7582     -6264.4954      347.87085     -0.049015608    0.0359        -0.49015608   
    360000   236.66737     -5579.9865     -6301.6726     -56.951         0.0072664078   0.036          0.072664078  
    361000   248.17631     -5562.749      -6319.5301      200.17523     -0.032365686    0.0361        -0.32365686   
    362000   249.5243      -5507.2762     -6268.1678     -19.654219     -0.0033472426   0.0362        -0.033472426  
    363000   248.34679     -5514.9915     -6272.2924      642.24084     -0.060611696    0.0363        -0.60611696   
    364000   245.31038     -5556.1948     -6304.2365     -970.97248      0.10819705     0.0364         1.0819705    
    365000   252.26338     -5530.9003     -6300.1443     -542.72007      0.056111962    0.0365         0.56111962   
    366000   234.66977     -5569.2367     -6284.8313      561.21289     -0.063081475    0.0366        -0.63081475   
    367000   245.10469     -5568.8652     -6316.2797     -233.14737      0.0262934      0.0367         0.262934     
    368000   249.65855     -5525.3016     -6286.6025     -685.09688      0.074311575    0.0368         0.74311575   
    369000   249.57868     -5566.1641     -6327.2215      42.260088     -0.0021205433   0.0369        -0.021205433  
    370000   239.62181     -5530.903      -6261.5983     -228.76975      0.015694043    0.037          0.15694043   
    371000   236.15236     -5555.0996     -6275.2152      411.68133     -0.045693178    0.0371        -0.45693178   
    372000   248.25401     -5483.4447     -6240.4627      415.26724     -0.033366751    0.0372        -0.33366751   
    373000   246.41865     -5546.0684     -6297.4897     -634.56867      0.07311091     0.0373         0.7311091    
    374000   247.5021      -5505.8589     -6260.584       240.78683     -0.033261892    0.0374        -0.33261892   
    375000   249.8344      -5493.6856     -6255.5228     -236.04437      0.023509773    0.0375         0.23509773   
    376000   250.38842     -5536.6678     -6300.1944      354.88532     -0.044231667    0.0376        -0.44231667   
    377000   254.77767     -5547.3154     -6324.2265     -157.69207      0.023767276    0.0377         0.23767276   
    378000   251.03777     -5496.8309     -6262.3376      426.92235     -0.042029835    0.0378        -0.42029835   
    379000   246.73183     -5542.103      -6294.4793      726.18128     -0.068724687    0.0379        -0.68724687   
    380000   247.49826     -5518.5763     -6273.2898      854.78413     -0.091773338    0.038         -0.91773338   
    381000   241.11254     -5541.7679     -6277.0089      63.678976     -0.015273566    0.0381        -0.15273566   
    382000   248.10337     -5507.6146     -6264.1733      425.19199     -0.039873405    0.0382        -0.39873405   
    383000   245.31098     -5533.8778     -6281.9214      123.99304     -0.01140575     0.0383        -0.1140575    
    384000   243.51249     -5565.1818     -6307.7412      407.02287     -0.048932248    0.0384        -0.48932248   
    385000   246.94856     -5532.4218     -6285.459       322.94218     -0.038538306    0.0385        -0.38538306   
    386000   247.67318     -5537.6318     -6292.8787      342.7825      -0.040479369    0.0386        -0.40479369   
    387000   232.14367     -5605.2485     -6313.1401      669.97969     -0.077398823    0.0387        -0.77398823   
    388000   260.04916     -5484.5024     -6277.4881     -240.64647      0.033942059    0.0388         0.33942059   
    389000   239.36856     -5568.4935     -6298.4165     -495.35726      0.053430784    0.0389         0.53430784   
    390000   249.90687     -5509.4519     -6271.5101     -635.70127      0.072339745    0.039          0.72339745   
    391000   242.72075     -5491.3006     -6231.4456      188.93632     -0.021314635    0.0391        -0.21314635   
    392000   245.47135     -5570.8008     -6319.3334     -495.67142      0.04169847     0.0392         0.4169847    
    393000   247.21901     -5504.5277     -6258.3896     -9.1051953     -0.0095577037   0.0393        -0.095577037  
    394000   247.26782     -5514.2802     -6268.291      -159.1371       0.013391784    0.0394         0.13391784   
    395000   255.56        -5446.0115     -6225.3082      590.61233     -0.062357217    0.0395        -0.62357217   
    396000   243.53842     -5496.4381     -6239.0765     -132.81143      0.011353694    0.0396         0.11353694   
    397000   248.05323     -5481.2606     -6237.6663      212.38507     -0.023274314    0.0397        -0.23274314   
    398000   251.65503     -5507.4115     -6274.8005     -329.87062      0.037342479    0.0398         0.37342479   
    399000   247.77868     -5500.5085     -6256.0771     -310.46231      0.027563704    0.0399         0.27563704   
    400000   251.52101     -5457.476      -6224.4563      265.64664     -0.026001828    0.04          -0.26001828   
Loop time of 89.9633 on 56 procs for 100000 steps with 1536 atoms

Performance: 96.039 ns/day, 0.250 hours/ns, 1111.564 timesteps/s, 1.707 Matom-step/s
99.8% CPU use with 56 MPI tasks x no OpenMP threads

MPI task timing breakdown:
Section |  min time  |  avg time  |  max time  |%varavg| %total
---------------------------------------------------------------
Pair    | 21.836     | 24.859     | 27.628     |  23.3 | 27.63
Bond    | 0.010931   | 0.014385   | 0.022461   |   1.8 |  0.02
Kspace  | 34.949     | 37.614     | 40.534     |  18.0 | 41.81
Neigh   | 1.701      | 1.7036     | 1.7058     |   0.1 |  1.89
Comm    | 9.7124     | 10.028     | 10.369     |   5.0 | 11.15
Output  | 0.076604   | 0.12039    | 0.1555     |   6.1 |  0.13
Modify  | 10.823     | 12.921     | 14.889     |  31.4 | 14.36
Other   |            | 2.704      |            |       |  3.01

Nlocal:        27.4286 ave          34 max          21 min
Histogram: 3 3 3 12 9 6 11 4 3 2
Nghost:         4035.3 ave        4112 max        3972 min
Histogram: 2 3 10 11 10 3 6 7 3 1
Neighs:        12001.3 ave       14788 max        9102 min
Histogram: 3 3 3 8 12 7 6 6 6 2

Total # of neighbors = 672075
Ave neighs/atom = 437.54883
Ave special neighs/atom = 2
Neighbor list builds = 1105
Dangerous builds = 0
kspace_style pppm/tip4p 1.0e-5
next nloop
jump SELF loop_start
run 100000 # 100ps
PPPM initialization ...
  extracting TIP4P info from pair style
  using 12-bit tables for long-range coulomb
  G vector (1/distance) = 0.33268552
  grid = 27 27 27
  stencil order = 5
  estimated absolute RMS force accuracy = 0.0027276955
  estimated relative force accuracy = 8.214374e-06
  using double precision KISS FFT
  3d grid and FFT values/proc = 4576 432
Generated 0 of 1 mixed pair_coeff terms from geometric mixing rule
Per MPI rank memory allocation (min/avg/max) = 9.612 | 9.632 | 9.652 Mbytes
   Step          Temp          TotEng         PotEng          Pxy           v_sxy         v_strain     v_viscosity  
    400000   251.52101     -5457.4756     -6224.4559      265.86838     -0.026024296    0.04          -0.26024296   
    401000   244.36401     -5500.504      -6245.66        164.53561     -0.013317673    0.0401        -0.13317673   
    402000   247.80051     -5508.5017     -6264.1368     -190.514        0.026370961    0.0402         0.26370961   
    403000   247.56485     -5483.5467     -6238.4632      713.27254     -0.075534842    0.0403        -0.75534842   
    404000   242.22125     -5512.8232     -6251.4451     -448.81125      0.038132099    0.0404         0.38132099   
    405000   244.62189     -5430.1002     -6176.0425     -321.53554      0.035107728    0.0405         0.35107728   
    406000   249.96935     -5447.5588     -6209.8075     -267.5574       0.022639612    0.0406         0.22639612   
    407000   235.55579     -5528.02       -6246.3165      341.55158     -0.030132898    0.0407        -0.30132898   
    408000   244.74203     -5532.999      -6279.3077      1006.8908     -0.087793528    0.0408        -0.87793528   
    409000   251.39967     -5494.8138     -6261.4241      158.43136     -0.0096958023   0.0409        -0.096958023  
    410000   245.31244     -5563.2813     -6311.3293      920.24841     -0.083894814    0.041         -0.83894814   
    411000   253.15843     -5491.9196     -6263.893       416.59379     -0.045039221    0.0411        -0.45039221   
    412000   240.02159     -5516.388      -6248.3024     -356.17757      0.026768942    0.0412         0.26768942   
    413000   242.15068     -5489.7874     -6228.1941      166.08612     -0.017728179    0.0413        -0.17728179   
    414000   242.13128     -5502.8508     -6241.1984      354.44913     -0.043469978    0.0414        -0.43469978   
    415000   244.299       -5445.816      -6190.7737     -330.7773       0.027369883    0.0415         0.27369883   
    416000   241.60527     -5480.3705     -6217.114      -378.6275       0.037430938    0.0416         0.37430938   
    417000   243.15372     -5553.292      -6294.7573      387.80939     -0.039633784    0.0417        -0.39633784   
    418000   240.03019     -5513.6413     -6245.5818      889.28528     -0.08965618     0.0418        -0.8965618    
    419000   250.9483      -5546.2984     -6311.5323      709.96667     -0.0690188      0.0419        -0.690188     
    420000   252.16549     -5489.4932     -6258.4387      1734.1126     -0.16025239     0.042         -1.6025239    
    421000   247.23626     -5549.9023     -6303.8168     -79.20389       0.02164629     0.0421         0.2164629    
    422000   255.91997     -5474.0904     -6254.4847      316.56353     -0.040188019    0.0422        -0.40188019   
    423000   240.44276     -5514.6076     -6247.8063     -255.98105      0.020403682    0.0423         0.20403682   
    424000   245.63131     -5538.476      -6287.4964     -170.61429      0.026098877    0.0424         0.26098877   
    425000   248.53683     -5498.0909     -6255.9713     -146.31748      0.019008554    0.0425         0.19008554   
    426000   241.1258      -5506.7857     -6242.0672      449.34071     -0.045207014    0.0426        -0.45207014   
    427000   232.12703     -5579.604      -6287.4449     -159.38458      0.022400975    0.0427         0.22400975   
    428000   246.67589     -5488.0095     -6240.2153     -123.50089      0.010912861    0.0428         0.10912861   
    429000   246.43782     -5564.2194     -6315.6992     -233.78714      0.017587626    0.0429         0.17587626   
    430000   248.45577     -5544.7028     -6302.3361     -963.89721      0.091262428    0.043          0.91262428   
    431000   260.49833     -5502.0113     -6296.3668     -311.90995      0.034941526    0.0431         0.34941526   
    432000   244.98103     -5535.1395     -6282.177       456.11504     -0.046789142    0.0432        -0.46789142   
    433000   241.82967     -5577.0077     -6314.4355     -757.73343      0.059658901    0.0433         0.59658901   
    434000   250.53397     -5579.1867     -6343.1572     -260.33433      0.036977835    0.0434         0.36977835   
    435000   261.09557     -5491.8254     -6288.002      -215.15315      0.025832992    0.0435         0.25832992   
    436000   239.19848     -5590.8613     -6320.2657      369.02355     -0.039089344    0.0436        -0.39089344   
    437000   250.32642     -5533.2684     -6296.6059     -14.996363      0.0047632166   0.0437         0.047632166  
    438000   247.26251     -5532.1928     -6286.1873      1138.0082     -0.10102497     0.0438        -1.0102497    
    439000   246.59668     -5575.691      -6327.6552     -53.617336      0.011909908    0.0439         0.11909908   
    440000   263.52598     -5489.7941     -6293.382       386.0315      -0.047298628    0.044         -0.47298628   
    441000   247.58812     -5585.2216     -6340.2091      468.9032      -0.051415352    0.0441        -0.51415352   
    442000   248.27839     -5571.6382     -6328.7305      261.98007     -0.014276394    0.0442        -0.14276394   
    443000   249.30062     -5539.9183     -6300.1278     -281.32061      0.020149795    0.0443         0.20149795   
    444000   247.34104     -5529.2514     -6283.4854      678.59006     -0.067926414    0.0444        -0.67926414   
    445000   246.16528     -5529.655      -6280.3037      276.75942     -0.024561542    0.0445        -0.24561542   
    446000   254.0685      -5497.179      -6271.9275     -93.683344      0.0053543439   0.0446         0.053543439  
    447000   246.39657     -5551.914      -6303.268      -489.81038      0.045425291    0.0447         0.45425291   
    448000   235.17353     -5545.0008     -6262.1316     -796.62472      0.075390794    0.0448         0.75390794   
    449000   235.98813     -5524.5747     -6244.1896     -285.9843       0.031421487    0.0449         0.31421487   
    450000   247.8142      -5468.7861     -6224.463       324.40205     -0.034714066    0.045         -0.34714066   
    451000   233.25488     -5579.313      -6290.5932      135.44128     -0.01108962     0.0451        -0.1108962    
    452000   245.94391     -5512.9551     -6262.9287     -199.63108      0.025971168    0.0452         0.25971168   
    453000   239.08698     -5516.7164     -6245.7807      1230.6098     -0.13188809     0.0453        -1.3188809    
    454000   241.68691     -5527.2894     -6264.2819      1142.9897     -0.11572321     0.0454        -1.1572321    
    455000   246.77297     -5602.6648     -6355.1666      1058.0671     -0.1026242      0.0455        -1.026242     
    456000   253.75312     -5502.813      -6276.5998      605.63517     -0.056774573    0.0456        -0.56774573   
    457000   249.91597     -5542.4564     -6304.5423      600.82336     -0.056937107    0.0457        -0.56937107   
    458000   240.58119     -5550.6439     -6284.2646      657.91861     -0.06593115     0.0458        -0.6593115    
    459000   232.94159     -5585.7734     -6296.0982     -877.3101       0.091067203    0.0459         0.91067203   
    460000   247.24072     -5524.6049     -6278.533       507.26623     -0.059003611    0.046         -0.59003611   
    461000   240.41246     -5534.8751     -6267.9813      418.85232     -0.042052964    0.0461        -0.42052964   
    462000   243.75503     -5511.9888     -6255.2878      565.87987     -0.054081145    0.0462        -0.54081145   
    463000   243.44095     -5500.921      -6243.2622      1210.8954     -0.1291536      0.0463        -1.291536     
    464000   244.47825     -5482.4956     -6227.9999      841.76184     -0.080423011    0.0464        -0.80423011   
    465000   248.38633     -5539.8156     -6297.2371      260.94643     -0.028931881    0.0465        -0.28931881   
    466000   254.56951     -5501.1543     -6277.4306      126.03529     -0.016765421    0.0466        -0.16765421   
    467000   253.33696     -5471.4614     -6243.9792      16.847348     -0.0077821647   0.0467        -0.077821647  
    468000   251.37724     -5478.344      -6244.8859     -224.29155      0.018994561    0.0468         0.18994561   
    469000   242.95713     -5534.6555     -6275.5213      608.88032     -0.063843661    0.0469        -0.63843661   
    470000   253.87472     -5495.8236     -6269.9812     -80.768615      0.01035752     0.047          0.1035752    
    471000   234.31744     -5529.961      -6244.4813      135.76        -0.010665672    0.0471        -0.10665672   
    472000   249.68376     -5493.1014     -6254.4792      8.4670661     -0.0087468334   0.0472        -0.087468334  
    473000   245.49876     -5540.2626     -6288.8788     -608.52142      0.060585405    0.0473         0.60585405   
    474000   253.4127      -5520.5777     -6293.3265     -825.06508      0.06962002     0.0474         0.6962002    
    475000   248.57856     -5539.5013     -6297.5089     -48.335652     -0.0042970061   0.0475        -0.042970061  
    476000   245.88904     -5541.6925     -6291.4989      587.60151     -0.064143093    0.0476        -0.64143093   
    477000   246.23112     -5536.4214     -6287.2709      289.05248     -0.020784644    0.0477        -0.20784644   
    478000   247.16191     -5502.0167     -6255.7045      187.21355     -0.019771722    0.0478        -0.19771722   
    479000   248.01089     -5477.9752     -6234.2518     -153.71753      0.022257946    0.0479         0.22257946   
    480000   240.91864     -5536.721      -6271.3707      154.63641     -0.017541858    0.048         -0.17541858   
    481000   232.93813     -5565.8688     -6276.183      -727.24472      0.075940976    0.0481         0.75940976   
    482000   251.48281     -5482.7111     -6249.5749      260.88566     -0.025128458    0.0482        -0.25128458   
    483000   239.25602     -5567.4152     -6296.995      -413.71505      0.040295515    0.0483         0.40295515   
    484000   242.765       -5495.9968     -6236.2768      118.75927     -0.0030101455   0.0484        -0.030101455  
    485000   245.09537     -5527.7845     -6275.1706      260.1682      -0.019688678    0.0485        -0.19688678   
    486000   256.17021     -5511.0999     -6292.2574     -297.1015       0.028872612    0.0486         0.28872612   
    487000   243.25126     -5494.1579     -6235.9207     -304.41579      0.028625231    0.0487         0.28625231   
    488000   247.91892     -5520.1334     -6276.1296     -665.05914      0.066560826    0.0488         0.66560826   
    489000   237.61935     -5593.2708     -6317.8598     -279.85679      0.026798386    0.0489         0.26798386   
    490000   241.39197     -5507.1092     -6243.2024      631.19098     -0.058103442    0.049         -0.58103442   
    491000   249.66668     -5557.3588     -6318.6846     -258.5437       0.018617132    0.0491         0.18617132   
    492000   238.57695     -5577.0938     -6304.6028     -732.41888      0.066912991    0.0492         0.66912991   
    493000   251.95405     -5575.5632     -6343.864      -189.14593      0.018089277    0.0493         0.18089277   
    494000   249.36591     -5587.2393     -6347.6479     -168.93618      0.024248872    0.0494         0.24248872   
    495000   242.06197     -5531.724      -6269.8602      854.9354      -0.085591115    0.0495        -0.85591115   
    496000   244.10516     -5584.2121     -6328.5787      179.12938     -0.004808111    0.0496        -0.04808111   
    497000   244.48116     -5599.3591     -6344.8723      422.53851     -0.041835161    0.0497        -0.41835161   
    498000   250.58276     -5519.9662     -6284.0854     -372.21932      0.044387676    0.0498         0.44387676   
    499000   248.00966     -5530.7826     -6287.0555     -15.476852      0.0014219472   0.0499         0.014219472  
    500000   245.30103     -5589.5452     -6337.5585      460.89126     -0.046686352    0.05          -0.46686352   
Loop time of 89.6541 on 56 procs for 100000 steps with 1536 atoms

Performance: 96.370 ns/day, 0.249 hours/ns, 1115.398 timesteps/s, 1.713 Matom-step/s
99.8% CPU use with 56 MPI tasks x no OpenMP threads

MPI task timing breakdown:
Section |  min time  |  avg time  |  max time  |%varavg| %total
---------------------------------------------------------------
Pair    | 22.466     | 24.787     | 26.48      |  19.3 | 27.65
Bond    | 0.010572   | 0.014295   | 0.021195   |   1.8 |  0.02
Kspace  | 35.747     | 37.357     | 39.427     |  15.1 | 41.67
Neigh   | 1.7166     | 1.7197     | 1.7214     |   0.1 |  1.92
Comm    | 9.7648     | 10.045     | 10.385     |   4.9 | 11.20
Output  | 0.076411   | 0.11995    | 0.15492    |   6.1 |  0.13
Modify  | 10.793     | 12.913     | 14.849     |  31.3 | 14.40
Other   |            | 2.698      |            |       |  3.01

Nlocal:        27.4286 ave          34 max          20 min
Histogram: 2 1 4 4 8 19 6 9 1 2
Nghost:        4017.59 ave        4115 max        3886 min
Histogram: 2 3 6 6 10 2 3 8 9 7
Neighs:        12016.1 ave       15216 max        8702 min
Histogram: 2 1 4 6 11 14 12 3 2 1

Total # of neighbors = 672903
Ave neighs/atom = 438.08789
Ave special neighs/atom = 2
Neighbor list builds = 1120
Dangerous builds = 0
kspace_style pppm/tip4p 1.0e-5
next nloop
jump SELF loop_start
run 100000 # 100ps
PPPM initialization ...
  extracting TIP4P info from pair style
  using 12-bit tables for long-range coulomb
  G vector (1/distance) = 0.33232994
  grid = 27 27 27
  stencil order = 5
  estimated absolute RMS force accuracy = 0.0027873725
  estimated relative force accuracy = 8.3940895e-06
  using double precision KISS FFT
  3d grid and FFT values/proc = 4576 432
Generated 0 of 1 mixed pair_coeff terms from geometric mixing rule
Per MPI rank memory allocation (min/avg/max) = 9.612 | 9.632 | 9.652 Mbytes
   Step          Temp          TotEng         PotEng          Pxy           v_sxy         v_strain     v_viscosity  
    500000   245.3009      -5589.5455     -6337.5584      461.06486     -0.046704039    0.05          -0.46704039   
    501000   251.77345     -5564.9913     -6332.7413      272.6955      -0.037813647    0.0501        -0.37813647   
    502000   238.69114     -5553.5935     -6281.4508      228.39464     -0.021971324    0.0502        -0.21971324   
    503000   243.25728     -5604.3476     -6346.1288     -3.1171681     -0.0033278812   0.0503        -0.033278812  
    504000   256.77473     -5508.5944     -6291.5952      434.48685     -0.038348091    0.0504        -0.38348091   
    505000   249.58259     -5563.5915     -6324.6608      71.264814     -0.010085691    0.0505        -0.10085691   
    506000   242.90308     -5570.1933     -6310.8943      345.75299     -0.03058714     0.0506        -0.3058714    
    507000   249.10655     -5519.5041     -6279.1219     -53.215606      0.0023127631   0.0507         0.023127631  
    508000   242.99895     -5549.7713     -6290.7647      584.86761     -0.062260289    0.0508        -0.62260289   
    509000   248.43825     -5524.4763     -6282.0562     -58.026571      0.024950349    0.0509         0.24950349   
    510000   229.98675     -5584.3864     -6285.7008      53.981282     -0.0045800847   0.051         -0.045800847  
    511000   253.87709     -5517.1303     -6291.2951      908.50728     -0.087034466    0.0511        -0.87034466   
    512000   237.42499     -5578.4023     -6302.3987      552.29263     -0.052809239    0.0512        -0.52809239   
    513000   240.27846     -5563.4754     -6296.173      -357.88238      0.035819598    0.0513         0.35819598   
    514000   250.44754     -5548.943      -6312.6499      489.88091     -0.048277497    0.0514        -0.48277497   
    515000   247.76301     -5523.8116     -6279.3324     -251.844        0.029553178    0.0515         0.29553178   
    516000   233.8398      -5572.3104     -6285.3741      142.44259     -0.0091486624   0.0516        -0.091486624  
    517000   250.2735      -5509.2212     -6272.3974     -339.67191      0.030991336    0.0517         0.30991336   
    518000   245.94384     -5523.2219     -6273.1954      498.94146     -0.059703755    0.0518        -0.59703755   
    519000   243.90568     -5530.4781     -6274.2364     -135.28904      0.028233831    0.0519         0.28233831   
    520000   236.81832     -5521.0794     -6243.2258      256.42555     -0.027273069    0.052         -0.27273069   
    521000   243.84899     -5520.7446     -6264.3301     -342.56213      0.033072729    0.0521         0.33072729   
    522000   245.23255     -5534.8716     -6282.6761     -285.64773      0.023695504    0.0522         0.23695504   
    523000   248.14329     -5528.3386     -6285.019       921.98714     -0.098911909    0.0523        -0.98911909   
    524000   247.92123     -5559.5483     -6315.5515      68.987395     -0.00065394008  0.0524        -0.0065394008 
    525000   243.64688     -5592.9825     -6335.9517      185.22562     -0.014369377    0.0525        -0.14369377   
    526000   238.15145     -5575.309      -6301.5206     -472.8706       0.033584027    0.0526         0.33584027   
    527000   256.45889     -5503.9019     -6285.9396      113.07135     -0.0058747985   0.0527        -0.058747985  
    528000   237.85115     -5612.3873     -6337.6831     -836.74499      0.080199237    0.0528         0.80199237   
    529000   253.8708      -5504.7443     -6278.89       -595.56468      0.057260722    0.0529         0.57260722   
    530000   239.60811     -5595.1233     -6325.7768     -1088.2451      0.10856792     0.053          1.0856792    
    531000   248.61209     -5572.9173     -6331.0272     -344.58033      0.042709571    0.0531         0.42709571   
    532000   240.23361     -5569.7557     -6302.3165     -267.10508      0.026931487    0.0532         0.26931487   
    533000   256.53863     -5534.0622     -6316.343       4.8604624      0.0032164518   0.0533         0.032164518  
    534000   240.81262     -5530.1997     -6264.5261     -621.8965       0.0617205      0.0534         0.617205     
    535000   241.57275     -5543.8133     -6280.4576     -847.79258      0.080317535    0.0535         0.80317535   
    536000   255.48903     -5490.2624     -6269.3426     -309.29089      0.02683799     0.0536         0.2683799    
    537000   246.00725     -5529.6299     -6279.7967     -692.35391      0.067588497    0.0537         0.67588497   
    538000   252.87926     -5567.5313     -6338.6534      245.9021      -0.037385243    0.0538        -0.37385243   
    539000   248.66538     -5501.8643     -6260.1368      263.94657     -0.026498414    0.0539        -0.26498414   
    540000   245.92585     -5497.259      -6247.1776      391.3736      -0.036561855    0.054         -0.36561855   
    541000   241.82109     -5552.5328     -6289.9345      197.59032     -0.019232933    0.0541        -0.19232933   
    542000   249.99355     -5503.1526     -6265.4751      378.94345     -0.035813062    0.0542        -0.35813062   
    543000   254.26717     -5497.4511     -6272.8055      361.18269     -0.042112039    0.0543        -0.42112039   
[...]
   4862000   243.72113     -5527.1348     -6270.3304      76.509228     -0.0051716151   0.4862        -0.051716151  
   4863000   244.41639     -5569.3924     -6314.7081     -940.63698      0.092216366    0.4863         0.92216366   
   4864000   257.14054     -5529.4298     -6313.5461      223.65675     -0.026966208    0.4864        -0.26966208   
   4865000   256.02068     -5489.3394     -6270.0408     -315.53524      0.027213629    0.4865         0.27213629   
   4866000   241.97707     -5565.3968     -6303.2741      557.85349     -0.054958964    0.4866        -0.54958964   
   4867000   245.59265     -5546.9393     -6295.8418      231.40238     -0.019545624    0.4867        -0.19545624   
   4868000   239.45316     -5607.419      -6337.6         308.20797     -0.025388596    0.4868        -0.25388596   
   4869000   252.8798      -5529.4249     -6300.5486      287.55752     -0.019076751    0.4869        -0.19076751   
   4870000   250.18756     -5560.8421     -6323.7562     -691.37164      0.064778953    0.487          0.64778953   
   4871000   257.21358     -5506.5651     -6290.9041      44.490308     -0.00019814439  0.4871        -0.0019814439 
   4872000   245.22821     -5581.8229     -6329.6142      1464.4238     -0.14241491     0.4872        -1.4241491    
   4873000   247.0692      -5528.8041     -6282.2092      651.13988     -0.058844229    0.4873        -0.58844229   
   4874000   239.22721     -5577.1312     -6306.6231      348.12121     -0.018901396    0.4874        -0.18901396   
   4875000   243.06283     -5536.6757     -6277.8638     -738.0351       0.070746624    0.4875         0.70746624   
   4876000   249.09016     -5518.9297     -6278.4974      60.879945     -0.0027275991   0.4876        -0.027275991  
   4877000   242.87332     -5536.7772     -6277.3875     -142.52561      0.016631197    0.4877         0.16631197   
   4878000   249.25104     -5566.9669     -6327.0252      790.07686     -0.070437174    0.4878        -0.70437174   
   4879000   247.64552     -5514.9787     -6270.1412      48.555607      0.0022645039   0.4879         0.022645039  
   4880000   243.15777     -5539.7645     -6281.2421      343.42104     -0.027097914    0.488         -0.27097914   
   4881000   234.57585     -5522.5952     -6237.9034      455.2846      -0.043082883    0.4881        -0.43082883   
   4882000   243.92304     -5589.98       -6333.7913      191.3777      -0.0148691      0.4882        -0.148691     
   4883000   254.86778     -5514.9019     -6292.0878     -166.4176       0.018364026    0.4883         0.18364026   
   4884000   247.84944     -5530.2356     -6286.0199      155.94898     -0.0073898033   0.4884        -0.073898033  
   4885000   251.0775      -5528.5834     -6294.2112     -603.6957       0.058135112    0.4885         0.58135112   
   4886000   241.17617     -5553.8934     -6289.3285     -355.71783      0.027260989    0.4886         0.27260989   
   4887000   244.99266     -5535.3745     -6282.4474     -624.32395      0.0596152      0.4887         0.596152     
   4888000   247.80348     -5523.4498     -6279.0939      461.64647     -0.048946997    0.4888        -0.48946997   
   4889000   236.31966     -5540.7329     -6261.3587     -57.940758      0.0052612227   0.4889         0.052612227  
   4890000   244.82008     -5494.3287     -6240.8753      632.58654     -0.057448327    0.489         -0.57448327   
   4891000   257.25438     -5528.363      -6312.8265     -171.55381      0.021883319    0.4891         0.21883319   
   4892000   244.18306     -5579.1446     -6323.7487      259.81189     -0.02365111     0.4892        -0.2365111    
   4893000   252.20784     -5515.8161     -6284.8908      326.22491     -0.028635055    0.4893        -0.28635055   
   4894000   250.2867      -5522.8424     -6286.0588      153.70044     -0.01187629     0.4894        -0.1187629    
   4895000   244.84159     -5522.9145     -6269.5268     -123.15908      0.0069182913   0.4895         0.069182913  
   4896000   241.31135     -5535.3787     -6271.226      -475.09302      0.04035242     0.4896         0.4035242    
   4897000   249.30525     -5513.8301     -6274.0537     -295.86414      0.021291289    0.4897         0.21291289   
   4898000   240.32363     -5542.0983     -6274.9337     -911.41192      0.089857913    0.4898         0.89857913   
   4899000   248.29874     -5492.4144     -6249.5688     -133.68238      0.006449827    0.4899         0.06449827   
   4900000   244.80962     -5510.4408     -6256.9556      643.00721     -0.067330097    0.49          -0.67330097   
Loop time of 100.436 on 56 procs for 100000 steps with 1536 atoms

Performance: 86.025 ns/day, 0.279 hours/ns, 995.662 timesteps/s, 1.529 Matom-step/s
99.8% CPU use with 56 MPI tasks x no OpenMP threads

MPI task timing breakdown:
Section |  min time  |  avg time  |  max time  |%varavg| %total
---------------------------------------------------------------
Pair    | 22.519     | 24.623     | 27.704     |  21.3 | 24.52
Bond    | 0.011117   | 0.014768   | 0.02597    |   2.1 |  0.01
Kspace  | 41.721     | 44.646     | 46.584     |  15.3 | 44.45
Neigh   | 1.762      | 1.7638     | 1.7654     |   0.1 |  1.76
Comm    | 10.716     | 10.96      | 11.191     |   3.5 | 10.91
Output  | 0.079065   | 0.12077    | 0.15597    |   6.0 |  0.12
Modify  | 13.895     | 16.462     | 17.242     |  24.5 | 16.39
Other   |            | 1.845      |            |       |  1.84

Nlocal:        27.4286 ave          34 max          19 min
Histogram: 1 1 9 2 7 3 17 5 7 4
Nghost:        4350.73 ave        4416 max        4276 min
Histogram: 2 2 5 8 8 10 7 4 4 6
Neighs:        12004.7 ave       14786 max        8228 min
Histogram: 1 2 8 3 6 4 16 8 3 5

Total # of neighbors = 672263
Ave neighs/atom = 437.67122
Ave special neighs/atom = 2
Neighbor list builds = 1079
Dangerous builds = 0
kspace_style pppm/tip4p 1.0e-5
next nloop
jump SELF loop_start
run 100000 # 100ps
PPPM initialization ...
  extracting TIP4P info from pair style
  using 12-bit tables for long-range coulomb
  G vector (1/distance) = 0.33370156
  grid = 27 40 27
  stencil order = 5
  estimated absolute RMS force accuracy = 0.0025712059
  estimated relative force accuracy = 7.7431101e-06
  using double precision KISS FFT
  3d grid and FFT values/proc = 6006 560
Generated 0 of 1 mixed pair_coeff terms from geometric mixing rule
Per MPI rank memory allocation (min/avg/max) = 9.822 | 9.847 | 9.859 Mbytes
   Step          Temp          TotEng         PotEng          Pxy           v_sxy         v_strain     v_viscosity  
   4900000   244.80956     -5510.4408     -6256.9554      643.23262     -0.067353226    0.49          -0.67353226   
   4901000   245.44265     -5572.9079     -6321.353      -671.25003      0.077092449    0.4901         0.77092449   
   4902000   252.10786     -5502.3369     -6271.1068      256.20866     -0.022367954    0.4902        -0.22367954   
   4903000   246.44961     -5538.4853     -6290.001       157.99441     -0.024798565    0.4903        -0.24798565   
   4904000   242.4221      -5537.9494     -6277.1838     -787.00224      0.063924523    0.4904         0.63924523   
   4905000   246.29596     -5514.7991     -6265.8462     -7.883151       0.013467611    0.4905         0.13467611   
   4906000   242.07496     -5531.0962     -6269.272      -257.94677      0.036476565    0.4906         0.36476565   
   4907000   247.65986     -5524.3983     -6279.6045     -874.46979      0.087077499    0.4907         0.87077499   
   4908000   247.49211     -5494.761      -6249.4557      199.50903     -0.0077035519   0.4908        -0.077035519  
   4909000   256.56771     -5471.4299     -6253.7995      636.85906     -0.074749061    0.4909        -0.74749061   
   4910000   249.9567      -5555.6452     -6317.8553     -910.11483      0.089976698    0.491          0.89976698   
   4911000   239.93602     -5567.1267     -6298.7801      4.273503       0.0027899682   0.4911         0.027899682  
   4912000   235.53155     -5553.0922     -6271.3147      479.52175     -0.040611851    0.4912        -0.40611851   
   4913000   249.09685     -5555.1562     -6314.7444     -552.0218       0.057581524    0.4913         0.57581524   
   4914000   243.29395     -5530.1495     -6272.0424      110.6927      -0.010748619    0.4914        -0.10748619   
   4915000   243.42456     -5527.3373     -6269.6285      375.37349     -0.049209494    0.4915        -0.49209494   
   4916000   245.1498      -5559.6018     -6307.1539     -625.82679      0.063456588    0.4916         0.63456588   
   4917000   236.67368     -5578.3936     -6300.0989      446.80419     -0.049838287    0.4917        -0.49838287   
   4918000   243.93721     -5511.6973     -6255.5517     -374.60931      0.034571833    0.4918         0.34571833   
   4919000   250.95717     -5541.1567     -6306.4176     -48.685125     -0.0019994226   0.4919        -0.019994226  
   4920000   251.61873     -5531.9539     -6299.2322      477.49642     -0.042362543    0.492         -0.42362543   
   4921000   244.57058     -5536.041      -6281.8269     -413.21834      0.033104864    0.4921         0.33104864   
   4922000   250.29291     -5502.6286     -6265.864       226.48784     -0.014847149    0.4922        -0.14847149   
   4923000   253.12674     -5494.1035     -6265.9802     -399.87083      0.034540756    0.4923         0.34540756   
   4924000   238.02927     -5534.9376     -6260.7766     -216.45153      0.023900996    0.4924         0.23900996   
   4925000   253.2917      -5491.1602     -6263.54       -850.90101      0.079231925    0.4925         0.79231925   
   4926000   247.13879     -5487.8678     -6241.485      -943.27041      0.095660535    0.4926         0.95660535   
   4927000   251.8076      -5483.9991     -6251.8533     -425.22351      0.040339042    0.4927         0.40339042   
   4928000   238.73377     -5522.1463     -6250.1336      1398.3662     -0.14671874     0.4928        -1.4671874    
   4929000   241.84806     -5547.1523     -6284.6362      117.26516     -0.01252696     0.4929        -0.1252696    
   4930000   250.91598     -5521.4973     -6286.6326     -144.78962      0.011986274    0.493          0.11986274   
   4931000   266.04055     -5467.2975     -6278.5533     -677.73998      0.069366618    0.4931         0.69366618   
   4932000   234.51962     -5613.8215     -6328.9582     -598.90462      0.052301353    0.4932         0.52301353   
   4933000   255.19605     -5513.2921     -6291.4789     -165.67553      0.0071013867   0.4933         0.071013867  
   4934000   253.97771     -5583.5498     -6358.0215     -886.42126      0.08718165     0.4934         0.8718165    
   4935000   240.57477     -5590.0992     -6323.7004     -411.77486      0.041999371    0.4935         0.41999371   
   4936000   241.1203      -5577.3927     -6312.6574     -309.62272      0.025683791    0.4936         0.25683791   
   4937000   262.46179     -5456.8646     -6257.2074     -345.02573      0.034521784    0.4937         0.34521784   
   4938000   243.64569     -5567.5601     -6310.5256     -148.98068      0.017467864    0.4938         0.17467864   
   4939000   238.34104     -5576.6832     -6303.4729      77.317935     -0.01064927     0.4939        -0.1064927    
   4940000   253.37726     -5538.3376     -6310.9783     -1309.4212      0.13270099     0.494          1.3270099    
   4941000   245.87253     -5518.6183     -6268.3743     -283.4575       0.039193479    0.4941         0.39193479   
   4942000   249.15834     -5528.6445     -6288.4202     -433.17258      0.035597564    0.4942         0.35597564   
   4943000   246.64361     -5573.2387     -6325.346      -426.67449      0.052995992    0.4943         0.52995992   
   4944000   253.1619      -5525.9289     -6297.9129      93.498824     -0.01246531     0.4944        -0.1246531    
   4945000   246.44137     -5524.6695     -6276.1601     -97.664743      0.00055314471  0.4945         0.0055314471 
   4946000   239.96948     -5528.9126     -6260.6681     -701.27415      0.064839459    0.4946         0.64839459   
   4947000   243.34136     -5588.4266     -6330.4641      134.89858     -0.017206574    0.4947        -0.17206574   
   4948000   252.68219     -5508.5415     -6279.0626     -165.44171      0.0070952224   0.4948         0.070952224  
   4949000   242.24571     -5508.4843     -6247.1808     -673.01497      0.067395848    0.4949         0.67395848   
   4950000   238.62606     -5540.2847     -6267.9435     -546.13308      0.055270569    0.495          0.55270569   
   4951000   252.27708     -5516.0778     -6285.3636     -292.76269      0.033677549    0.4951         0.33677549   
   4952000   233.65868     -5547.0189     -6259.5304     -698.60456      0.07165827     0.4952         0.7165827    
   4953000   251.02605     -5510.377      -6275.848       168.59751     -0.010567807    0.4953        -0.10567807   
   4954000   251.1405      -5506.4899     -6272.3099      226.86094     -0.024237251    0.4954        -0.24237251   
   4955000   244.59537     -5497.2491     -6243.1106     -36.032527      0.011310877    0.4955         0.11310877   
   4956000   244.09671     -5563.2975     -6307.6384      406.50832     -0.050040343    0.4956        -0.50040343   
   4957000   252.02104     -5443.1785     -6211.6835     -137.84647      0.01513187     0.4957         0.1513187    
   4958000   243.56295     -5533.4594     -6276.1727     -57.531619      0.01598236     0.4958         0.1598236    
   4959000   247.21693     -5521.3524     -6275.2079     -391.50855      0.043973999    0.4959         0.43973999   
   4960000   246.37149     -5473.5323     -6224.8099      275.21407     -0.022240305    0.496         -0.22240305   
   4961000   244.44034     -5487.9836     -6233.3724     -62.877529     -0.00072012935  0.4961        -0.0072012935 
   4962000   246.74195     -5542.5583     -6294.9655     -805.6886       0.082012123    0.4962         0.82012123   
   4963000   244.74551     -5530.2697     -6276.589      -200.67177      0.01687202     0.4963         0.1687202    
   4964000   237.18846     -5523.1769     -6246.452       138.245       -0.015335188    0.4964        -0.15335188   
   4965000   254.9438      -5516.8527     -6294.2703     -72.545107      0.013681617    0.4965         0.13681617   
   4966000   246.02674     -5529.9805     -6280.2068     -212.999        0.016490897    0.4966         0.16490897   
   4967000   242.9739      -5544.084      -6285.001      -95.676106      0.0075399167   0.4967         0.075399167  
   4968000   244.97333     -5562.1552     -6309.1692      331.32075     -0.039969872    0.4968        -0.39969872   
   4969000   257.49708     -5493.4294     -6278.6329     -533.61885      0.055790368    0.4969         0.55790368   
   4970000   240.41403     -5575.4676     -6308.5786     -314.46219      0.034640298    0.497          0.34640298   
   4971000   245.44152     -5529.388      -6277.8297      165.33789     -0.0065122959   0.4971        -0.065122959  
   4972000   254.08562     -5482.3273     -6257.1281      658.51701     -0.071447288    0.4972        -0.71447288   
   4973000   242.93239     -5526.888      -6267.6784     -290.14389      0.028165669    0.4973         0.28165669   
   4974000   241.11406     -5565.9437     -6301.1894      37.148519     -0.010418849    0.4974        -0.10418849   
   4975000   237.62832     -5536.1484     -6260.7648     -396.72933      0.040544144    0.4975         0.40544144   
   4976000   247.20804     -5544.0063     -6297.8348     -612.53606      0.050265037    0.4976         0.50265037   
   4977000   242.09675     -5528.2356     -6266.4779     -136.58567      0.025825679    0.4977         0.25825679   
   4978000   253.17313     -5523.9296     -6295.9478      94.921341     -0.0083975016   0.4978        -0.083975016  
   4979000   241.68417     -5528.3826     -6265.3668      459.38097     -0.043551315    0.4979        -0.43551315   
   4980000   241.2795      -5555.1388     -6290.8889      755.13843     -0.0809145      0.498         -0.809145     
   4981000   250.74069     -5547.4263     -6312.0271     -263.37211      0.023741156    0.4981         0.23741156   
   4982000   251.56988     -5514.3147     -6281.4441     -123.55371      0.0088940822   0.4982         0.088940822  
   4983000   245.17662     -5606.0391     -6353.673      -487.05033      0.051616265    0.4983         0.51616265   
   4984000   244.20378     -5519.5004     -6264.1677      667.35561     -0.074505056    0.4984        -0.74505056   
   4985000   247.25479     -5558.051      -6312.022       135.63911     -0.01752028     0.4985        -0.1752028    
   4986000   256.43273     -5546.9728     -6328.9307     -83.909084      0.0035372111   0.4986         0.035372111  
   4987000   246.14358     -5554.355      -6304.9375     -53.679583      0.0041750774   0.4987         0.041750774  
   4988000   252.74891     -5574.7119     -6345.4366     -194.67891      0.017193269    0.4988         0.17193269   
   4989000   248.78045     -5531.2553     -6289.8786     -667.48897      0.06733116     0.4989         0.6733116    
   4990000   243.74977     -5546.9531     -6290.236       28.517597      0.0062597224   0.499          0.062597224  
   4991000   247.04516     -5547.1107     -6300.4425     -429.48797      0.045015218    0.4991         0.45015218   
   4992000   249.19954     -5563.885      -6323.7863      439.34134     -0.040608733    0.4992        -0.40608733   
   4993000   243.67776     -5587.1289     -6330.1922      931.74282     -0.084202717    0.4993        -0.84202717   
   4994000   248.54405     -5532.029      -6289.9314     -755.16997      0.065466976    0.4994         0.65466976   
   4995000   250.70845     -5521.7551     -6286.2576      1088.0305     -0.11491241     0.4995        -1.1491241    
   4996000   244.24717     -5590.3424     -6335.142      -282.6434       0.024516796    0.4996         0.24516796   
   4997000   240.40396     -5550.6344     -6283.7147      7.9210516     -0.0028081806   0.4997        -0.028081806  
   4998000   243.83879     -5572.6868     -6316.2412     -674.22742      0.069801071    0.4998         0.69801071   
   4999000   252.56559     -5554.1904     -6324.356       70.7446       -0.0041309299   0.4999        -0.041309299  
   5000000   237.39824     -5552.6746     -6276.5894     -460.72313      0.040156175    0.5            0.40156175   
Loop time of 99.8838 on 56 procs for 100000 steps with 1536 atoms

Performance: 86.500 ns/day, 0.277 hours/ns, 1001.163 timesteps/s, 1.538 Matom-step/s
99.8% CPU use with 56 MPI tasks x no OpenMP threads

MPI task timing breakdown:
Section |  min time  |  avg time  |  max time  |%varavg| %total
---------------------------------------------------------------
Pair    | 21.82      | 24.584     | 27.051     |  22.7 | 24.61
Bond    | 0.01132    | 0.014675   | 0.025625   |   2.1 |  0.01
Kspace  | 41.807     | 44.285     | 47.011     |  16.3 | 44.34
Neigh   | 1.804      | 1.8055     | 1.8067     |   0.1 |  1.81
Comm    | 10.712     | 10.911     | 11.144     |   2.6 | 10.92
Output  | 0.077959   | 0.11999    | 0.15527    |   6.1 |  0.12
Modify  | 13.868     | 16.438     | 17.216     |  24.6 | 16.46
Other   |            | 1.726      |            |       |  1.73

Nlocal:        27.4286 ave          34 max          21 min
Histogram: 4 1 3 15 8 5 9 7 1 3
Nghost:         4346.3 ave        4414 max        4279 min
Histogram: 1 0 8 8 12 12 4 7 3 1
Neighs:        12019.8 ave       15092 max        9198 min
Histogram: 4 1 7 11 8 8 6 7 2 2

Total # of neighbors = 673106
Ave neighs/atom = 438.22005
Ave special neighs/atom = 2
Neighbor list builds = 1101
Dangerous builds = 0
kspace_style pppm/tip4p 1.0e-5
next nloop
jump SELF loop_start
# run ${Ttotal}
# variable nloop loop ${nloops}
# label loop_start
# run ${stepsPerReset}
# kspace_style pppm/tip4p 1.0e-5
# next nloop
# jump SELF loop_start
Total wall time: 1:18:04
