LAMMPS (22 Jul 2025 - Update 1)
units real
atom_style full
boundary p p p

pair_style lj/cut/tip4p/long 1 2 1 1 0.1546 9.5
bond_style zero
angle_style zero
pair_modify tail yes

read_data data_225.data
Reading data file ...
  triclinic box = (-0.20081916 -0.20081916 -0.20081916) to (49.991339 49.991339 49.991339) with tilt (0 0 0)
  2 by 4 by 7 MPI processor grid
  reading atoms ...
  12288 atoms
  reading velocities ...
  12288 velocities
  scanning bonds ...
  2 = max bonds/atom
  scanning angles ...
  1 = max angles/atom
  triclinic box = (-0.20081916 -0.20081916 -0.20081916) to (49.991339 49.991339 49.991339) with tilt (0 0 0)
  2 by 4 by 7 MPI processor grid
  reading bonds ...
  8192 bonds
  reading angles ...
  4096 angles
Finding 1-2 1-3 1-4 neighbors ...
  special bond factors lj:    0        0        0       
  special bond factors coul:  0        0        0       
     2 = max # of 1-2 neighbors
     1 = max # of 1-3 neighbors
     1 = max # of 1-4 neighbors
     2 = max # of special neighbors
  special bonds CPU = 0.005 seconds
  read_data CPU = 0.176 seconds
print "Equilibrium configuration loaded from NPT run"
Equilibrium configuration loaded from NPT run

kspace_style pppm/tip4p 1.0e-5
pair_coeff 1 1 0.18521 3.1589 #O-O
pair_coeff * 2 0.0 0.0 #O-H/H-H
bond_coeff 1 0.9572 #O-H
angle_coeff 1 104.52 #H-O-H

group gH2O type 1 2
12288 atoms in group gH2O
group gO type 1
4096 atoms in group gO

neighbor 3.0 bin
neigh_modify delay 0 every 1 check yes

timestep 1.0
fix 1 gH2O shake 1.0e-4 100 0 b 1 a 1
Finding SHAKE clusters ...
       0 = # of size 2 clusters
       0 = # of size 3 clusters
       0 = # of size 4 clusters
    4096 = # of frozen angles
  find clusters CPU = 0.004 seconds


variable massAll equal mass(all)/6.022e23
variable volCm3 equal vol*1.0e-24
variable density_sys equal v_massAll/v_volCm3
variable tmp equal temp


thermo 1000
thermo_style custom step temp vol etotal pe lx v_density_sys
thermo_modify flush yes

fix fnpt all npt temp 225.0 225.0 100.0 iso 0.9869 0.9869 1000.0
dump dH2O gH2O custom 200 dump_H2O_225.lammpstrj id type xu yu zu # 间隔0.2ps采样
dump_modify dH2O sort id
run 2000000 # 2ns
PPPM initialization ...
  extracting TIP4P info from pair style
  using 12-bit tables for long-range coulomb
  G vector (1/distance) = 0.32754946
  grid = 50 50 50
  stencil order = 5
  estimated absolute RMS force accuracy = 0.0036668591
  estimated relative force accuracy = 1.1042637e-05
  using double precision KISS FFT
  3d grid and FFT values/proc = 11424 2800
WARNING: Communication cutoff 0 is shorter than a bond length based estimate of 4.4358. This may lead to errors. (../comm.cpp:743)
WARNING: Increasing communication cutoff to 13.6118 for TIP4P pair style (../pair_lj_cut_tip4p_long.cpp:497)
Generated 0 of 1 mixed pair_coeff terms from geometric mixing rule
Neighbor list info ...
  update: every = 1 steps, delay = 0 steps, check = yes
  max neighbors/atom: 2000, page size: 100000
  master list distance cutoff = 12.8092
  ghost atom cutoff = 13.6118
  binsize = 6.4046, bins = 8 8 8
  1 neighbor lists, perpetual/occasional/extra = 1 0 0
  (1) pair lj/cut/tip4p/long, perpetual
      attributes: half, newton on
      pair build: half/bin/newton/tri
      stencil: half/bin/3d/tri
      bin: standard
Per MPI rank memory allocation (min/avg/max) = 9.175 | 9.299 | 9.657 Mbytes
   Step          Temp          Volume         TotEng         PotEng           Lx       v_density_sys 
         0   226.11034      126446.73     -46573.443     -52094.111      50.192158      0.96906001   
      1000   224.94675      126679.7      -46532.014     -52024.272      50.222964      0.96727792   
      2000   223.795        126866.4      -46495.019     -51959.157      50.247626      0.96585438   
      3000   227.16942      126705.9      -46433.234     -51979.761      50.226427      0.96707785   
      4000   227.36407      127017.39     -46488.406     -52039.685      50.267551      0.96470629   
      5000   225.80834      126877.16     -46427.466     -51940.761      50.249046      0.96577247   
      6000   225.19636      126418.79     -46561.051     -52059.404      50.18846       0.96927424   
      7000   227.3056       126527.77     -46522.02      -52071.872      50.202879      0.96843934   
      8000   224.19352      126491.16     -46567.293     -52041.16       50.198036      0.96871965   
      9000   223.45155      126630.58     -46585.056     -52040.808      50.216472      0.9676531    
     10000   223.41557      126570.52     -46605.373     -52060.247      50.208532      0.96811226   
     11000   223.04127      126563.79     -46542.885     -51988.62       50.207641      0.96816377   
     12000   223.95274      126120.24     -46680.246     -52148.234      50.148922      0.97156863   
     13000   225.58953      126822.39     -46616.755     -52124.707      50.241814      0.96618956   
     14000   225.63251      127148.02     -46536.584     -52045.585      50.284778      0.96371514   
     15000   221.99961      126654.47     -46730.012     -52150.313      50.21963       0.96747054   
     16000   225.31822      127114        -46534.135     -52035.463      50.280293      0.96397304   
     17000   225.00934      126717.24     -46513.137     -52006.924      50.227925      0.96699133   
     18000   223.88567      127121.11     -46589.64      -52055.991      50.28123       0.96391917   
     19000   225.18046      126592.97     -46553.091     -52051.055      50.2115        0.96794058   
     20000   224.99011      126478.1      -46575.017     -52068.334      50.196308      0.96881971   
     21000   223.23987      126701.33     -46612.073     -52062.657      50.225822      0.96711279   
     22000   228.24781      126976.91     -46466.773     -52039.629      50.26221       0.96501385   
     23000   222.84014      126180.87     -46547.392     -51988.216      50.156957      0.97110179   
     24000   223.77318      126271.85     -46527.604     -51991.209      50.169008      0.97040212   
     25000   224.80368      126850.24     -46569.863     -52058.628      50.245492      0.96597742   
     26000   225.40035      127225.93     -46534.824     -52038.157      50.295046      0.96312502   
     27000   221.80865      126956.24     -46699.701     -52115.34       50.259483      0.96517092   
     28000   228.29179      126581.87     -46541.197     -52115.127      50.210032      0.96802547   
     29000   225.10475      126603.83     -46581.562     -52077.678      50.212936      0.96785756   
     30000   223.36652      126469.94     -46547.635     -52001.31       50.195229      0.96888218   
     31000   224.59324      126732.99     -46471.25      -51954.877      50.230006      0.96687116   
     32000   226.82577      126611.57     -46442.029     -51980.165      50.213959      0.96779839   
     33000   223.58739      126397.57     -46532.504     -51991.572      50.185652      0.96943696   
     34000   226.56829      126741.96     -46455.192     -51987.042      50.23119       0.96680276   
     35000   227.88639      126723.11     -46379.012     -51943.044      50.2287        0.96694653   
     36000   226.73485      127246.88     -46481.525     -52017.441      50.297807      0.9629664    
     37000   224.22743      126612.01     -46571.54      -52046.235      50.214017      0.96779503   
     38000   229.34951      126510.59     -46493.424     -52093.179      50.200606      0.96857087   
     39000   227.8478       126681.89     -46407.979     -51971.069      50.223253      0.96726119   
     40000   225.08808      126363.31     -46606.074     -52101.783      50.181118      0.96969975   
     41000   225.0402       126756.82     -46535.503     -52030.043      50.233154      0.96668935   
     42000   226.48756      126754.26     -46477.471     -52007.349      50.232815      0.96670895   
     43000   226.24397      126589.59     -46477.041     -52000.972      50.211053      0.96796641   
     44000   223.65767      126602.02     -46508.538     -51969.322      50.212696      0.96787141   
     45000   226.09487      126697.5      -46514.996     -52035.286      50.225317      0.96714196   
     46000   226.96415      126740.42     -46442.301     -51983.816      50.230988      0.96681446   
     47000   223.2754       126743.28     -46542.917     -51994.368      50.231365      0.96679266   
     48000   228.72761      126919.73     -46374.489     -51959.061      50.254665      0.96544854   
     49000   224.13523      126957.21     -46529.683     -52002.128      50.259611      0.96516358   
     50000   221.29562      126574.65     -46589.742     -51992.855      50.209077      0.9680807    
     51000   227.53238      126741.16     -46439.625     -51995.013      50.231085      0.96680881   
     52000   224.67195      126580.93     -46571.178     -52056.727      50.209908      0.96803266   
     53000   229.52756      127024.41     -46335.723     -51939.825      50.268477      0.96465298   
     54000   225.76596      126521.49     -46629.613     -52141.873      50.202048      0.9684874    
     55000   227.02958      126849.15     -46481.431     -52024.544      50.245347      0.96598578   
     56000   229.23391      126839.21     -46449.105     -52046.037      50.244035      0.96606144   
     57000   226.04294      126527.82     -46571.923     -52090.946      50.202885      0.96843899   
     58000   224.15573      126658.67     -46596.379     -52069.323      50.220185      0.96743848   
     59000   226.58184      126799.55     -46526.9       -52059.08       50.238797      0.96636365   
     60000   224.38433      126436.1      -46550.387     -52028.914      50.190751      0.96914152   
     61000   226.74122      126533.03     -46461.31      -51997.382      50.203574      0.96839908   
     62000   222.56796      126816.88     -46614.941     -52049.12       50.241087      0.96623153   
     63000   225.08049      126977.79     -46510.664     -52006.188      50.262327      0.9650071    
     64000   227.08925      126996.36     -46401.361     -51945.93       50.264776      0.96486605   
     65000   225.70051      127306.71     -46433.797     -51944.459      50.305688      0.96251386   
     66000   227.97498      126461.91     -46597.222     -52163.417      50.194166      0.96894374   
     67000   222.74617      126617.42     -46638.172     -52076.701      50.214732      0.96775368   
     68000   226.10025      126624.25     -46559.893     -52080.315      50.215635      0.9677015    
     69000   226.84135      126198.46     -46532.603     -52071.12       50.159286      0.9709665    
     70000   224.18808      126402.33     -46558.278     -52032.013      50.186282      0.96940044   
     71000   227.61978      126545.07     -46300.578     -51858.1        50.205166      0.96830698   
     72000   224.70651      127045.68     -46488.823     -51975.216      50.271283      0.96449146   
     73000   222.55142      126512.47     -46561.14      -51994.914      50.200854      0.9685565    
     74000   224.97307      126296.84     -46557.16      -52050.061      50.172318      0.97021011   
     75000   224.73286      127141.53     -46569.381     -52056.417      50.283923      0.9637643    
     76000   225.05302      126974.12     -46504.16      -51999.013      50.261842      0.96503504   
     77000   227.8619       126664.34     -46507.115     -52070.549      50.220934      0.96739521   
     78000   224.12969      126855        -46538.737     -52011.046      50.24612       0.96594121   
     79000   222.75132      126796.45     -46610.654     -52049.309      50.238388      0.96638727   
     80000   223.45805      126540.54     -46494.928     -51950.839      50.204567      0.96834162   
     81000   228.60732      126893.82     -46359.634     -51941.268      50.251245      0.96564571   
     82000   227.63015      126820.8      -46453.244     -52011.019      50.241604      0.96620172   
     83000   222.0781       126792.17     -46593.99      -52016.207      50.237823      0.96641988   
     84000   222.75174      126834.56     -46527.309     -51965.974      50.243421      0.96609689   
     85000   222.43587      126928.85     -46680.104     -52111.057      50.255868      0.96537924   
     86000   225.21074      126466.93     -46501.446     -52000.15       50.194831      0.96890523   
     87000   225.04         126098.79     -46471.856     -51966.391      50.146078      0.97173394   
     88000   226.44014      126441.72     -46419.348     -51948.069      50.191495      0.96909842   
     89000   226.33176      126197.34     -46530         -52056.074      50.159139      0.97097505   
     90000   224.63632      126910.45     -46546.409     -52031.088      50.253439      0.96551919   
     91000   227.38239      126950.47     -46398.854     -51950.581      50.258722      0.96521479   
     92000   222.62822      126520.56     -46552.533     -51988.183      50.201925      0.96849453   
     93000   226.00647      126485.48     -46494.674     -52012.806      50.197284      0.96876318   
     94000   225.16827      126614.66     -46488.388     -51986.055      50.214367      0.96777478   
     95000   226.75518      126313.5      -46504.973     -52041.386      50.174524      0.97008213   
     96000   224.44841      126520.07     -46427.128     -51907.219      50.20186       0.96849828   
     97000   225.85237      126581.14     -46627.091     -52141.461      50.209936      0.96803103   
     98000   225.73581      126351.59     -46502.021     -52013.545      50.179566      0.96978973   
     99000   225.47748      126541.14     -46607.808     -52113.025      50.204646      0.96833704   
    100000   225.60313      126371.33     -46453.873     -51962.157      50.18218       0.9696382    
    101000   226.35302      126353.04     -46465.735     -51992.329      50.179759      0.96977856   
    102000   225.90801      126033.87     -46406.925     -51922.653      50.137471      0.97223444   
    103000   225.2872       126252.07     -46576.976     -52077.547      50.166389      0.97055415   
    104000   227.27405      126491.26     -46452.685     -52001.766      50.198049      0.96871888   
    105000   221.24014      126171.36     -46524.042     -51925.8        50.155696      0.97117503   
    106000   223.0121       126787.32     -46542.836     -51987.858      50.237182      0.96645684   
    107000   226.07784      126905.5      -46418.203     -51938.078      50.252786      0.96555684   
    108000   222.26372      126507.97     -46536.559     -51963.309      50.20026       0.9685909    
    109000   225.0938       126627.91     -46436.222     -51932.071      50.216119      0.96767352   
    110000   221.65864      126177.55     -46573.256     -51985.233      50.156517      0.97112734   
    111000   222.8006       126424.75     -46612.363     -52052.221      50.18925       0.9692285    
    112000   226.96249      126384.13     -46534.345     -52075.819      50.183873      0.96954006   
    113000   229.16005      126618.12     -46435.599     -52030.729      50.214825      0.96774832   
    114000   225.58092      126501.84     -46528.9       -52036.642      50.199449      0.96863784   
    115000   227.80797      126860.95     -46432.62      -51994.738      50.246905      0.96589594   
    116000   223.06226      126564.68     -46522.568     -51968.815      50.20776       0.96815692   
    117000   222.42246      126206.16     -46542.026     -51972.651      50.160307      0.97090722   
    118000   224.49037      126613.26     -46446.555     -51927.67       50.214183      0.96778546   
    119000   222.81844      126783.88     -46648.171     -52088.465      50.236727      0.9664831    
    120000   225.83406      126533.48     -46478.782     -51992.705      50.203634      0.96839563   
    121000   222.28338      126332.86     -46675.449     -52102.679      50.177086      0.96993352   
    122000   226.35658      126490.27     -46487.035     -52013.715      50.197918      0.96872647   
    123000   222.96249      126978.18     -46552.872     -51996.683      50.262379      0.96500413   
    124000   226.04194      126194.15     -46546.806     -52065.804      50.158716      0.97099962   
    125000   229.47744      126716.26     -46420.845     -52023.724      50.227795      0.96699884   
    126000   225.50799      126499.2      -46519.146     -52025.107      50.199099      0.96865811   
    127000   226.78067      126117.17     -46423.44      -51960.475      50.148514      0.97159232   
    128000   226.20964      126166.84     -46499.331     -52022.424      50.155097      0.97120984   
    129000   228.08004      126566.41     -46443.075     -52011.835      50.207989      0.96814366   
    130000   222.10543      126151.23     -46666.44      -52089.326      50.153029      0.97132996   
    131000   227.64359      126621.41     -46420.866     -51978.97       50.21526       0.96772314   
    132000   225.37313      126852.71     -46601.268     -52103.936      50.245817      0.96595867   
    133000   224.22781      126270.15     -46588.339     -52063.043      50.168783      0.97041519   
    134000   226.15361      126263.28     -46539.755     -52061.48       50.167873      0.97046801   
    135000   223.0405       126401.89     -46539.309     -51985.024      50.186224      0.96940381   
    136000   225.85538      126154.27     -46505.838     -52020.281      50.153432      0.97130654   
    137000   225.05242      126407.55     -46579.435     -52074.273      50.186974      0.96936037   
    138000   225.59373      126368.27     -46561.773     -52069.828      50.181775      0.96966168   
    139000   222.5384       126744.4      -46613.684     -52047.14       50.231513      0.96678409   
    140000   225.53137      126654.98     -46485.405     -51991.937      50.219697      0.96746668   
    141000   222.47898      126219.42     -46610.96      -52042.966      50.162063      0.97080526   
    142000   222.29312      126635.42     -46585.13      -52012.597      50.217113      0.96761607   
    143000   224.6668       126330.59     -46506.234     -51991.657      50.176786      0.96995091   
    144000   226.0106       126209.59     -46408.451     -51926.685      50.160762      0.9708808    
    145000   227.02405      126445.2      -46315.663     -51858.64       50.191956      0.96907175   
    146000   222.57426      126156.15     -46550.759     -51985.091      50.15368       0.97129213   
    147000   226.90221      126580.07     -46469.349     -52009.352      50.209795      0.96803921   
    148000   226.0464       126424.95     -46440.709     -51959.816      50.189276      0.96922697   
    149000   226.2653       126258.96     -46468.736     -51993.187      50.167301      0.97050119   
    150000   226.6249       125920.71     -46500.485     -52033.716      50.122461      0.9731082    
    151000   224.99379      126135.72     -46423.574     -51916.98       50.150973      0.97144941   
    152000   224.32138      126116.22     -46491.776     -51968.765      50.148388      0.97159966   
    153000   228.13395      126559.73     -46325.604     -51895.68       50.207105      0.96819482   
    154000   223.66584      126631.32     -46588.407     -52049.391      50.21657       0.96764741   
    155000   224.6912       126585.71     -46311.561     -51797.58       50.21054       0.96799608   
    156000   225.36533      127086.22     -46494.901     -51997.379      50.27663       0.96418376   
    157000   222.12061      126679.47     -46605.167     -52028.423      50.222934      0.96727966   
    158000   222.73852      126771.18     -46526.327     -51964.669      50.23505       0.96657991   
    159000   225.85343      126128.47     -46421.054     -51935.449      50.150012      0.9715053    
    160000   223.82812      126026.02     -46563.147     -52028.093      50.13643       0.97229506   
    161000   225.39599      126384.98     -46475.905     -51979.132      50.183987      0.96953347   
    162000   226.46515      126263.27     -46595.314     -52124.646      50.167872      0.97046808   
    163000   224.57688      126669.97     -46476.829     -51960.057      50.221679      0.96735218   
    164000   223.00668      126734.9      -46548.569     -51993.459      50.230257      0.96685662   
    165000   227.0593       126131.65     -46426.763     -51970.601      50.150434      0.97148075   
    166000   226.44386      126503.94     -46479.634     -52008.446      50.199727      0.96862176   
    167000   225.23515      126255.44     -46512.211     -52011.51       50.166835      0.97052826   
    168000   226.73389      126402.75     -46574.461     -52110.354      50.186337      0.96939724   
    169000   227.26139      126183.44     -46536.023     -52084.796      50.157296      0.97108206   
    170000   227.27436      126303.95     -46581.033     -52130.122      50.173259      0.97015553   
    171000   223.61921      126108.91     -46685.483     -52145.329      50.147419      0.97165596   
    172000   225.78925      126482.19     -46510.895     -52023.723      50.196849      0.96878836   
    173000   222.96277      126278.92     -46618.562     -52062.38       50.169944      0.97034781   
    174000   226.99178      126339.19     -46562.622     -52104.811      50.177924      0.96988491   
    175000   222.80217      126415.9      -46578.902     -52018.799      50.188079      0.96929634   
    176000   226.14271      126509.67     -46509.844     -52031.302      50.200484      0.96857795   
    177000   225.53614      126341.84     -46490.171     -51996.819      50.178276      0.96986454   
    178000   225.31849      126333.59     -46554.876     -52056.211      50.177183      0.96992788   
    179000   222.58282      125997.58     -46525.766     -51960.307      50.132658      0.9725145    
    180000   223.40639      126020.19     -46601.045     -52055.694      50.135656      0.97234004   
    181000   227.3998       126195.51     -46563.891     -52116.043      50.158896      0.97098913   
    182000   225.83989      126109.65     -46534.833     -52048.898      50.147518      0.97165023   
    183000   222.39077      126542.92     -46560.036     -51989.888      50.204882      0.96832343   
    184000   222.72194      126476.64     -46581.602     -52019.539      50.196115      0.96883089   
    185000   225.19054      125935.76     -46579.142     -52077.353      50.124458      0.97299186   
    186000   222.58901      126066.19     -46564.6       -51999.292      50.141756      0.97198523   
    187000   224.93156      126295.6      -46569.138     -52061.026      50.172153      0.97021964   
    188000   223.82616      126613.78     -46507.554     -51972.452      50.214251      0.96778152   
    189000   225.19612      126337        -46503.928     -52002.274      50.177634      0.96990175   
    190000   224.00747      126023.73     -46697.07      -52166.395      50.136126      0.9723127    
    191000   230.08051      126077.97     -46494.349     -52111.952      50.143318      0.97189443   
    192000   226.03561      125928.59     -46646.536     -52165.379      50.123507      0.97304727   
    193000   226.16944      126577.14     -46562.339     -52084.45       50.209408      0.96806159   
    194000   223.48594      126692.37     -46615.851     -52072.442      50.224638      0.96718116   
    195000   224.20746      126698.16     -46720.429     -52194.637      50.225403      0.96713699   
    196000   226.70143      126860.28     -46606.495     -52141.595      50.246816      0.96590104   
    197000   220.45236      126452.52     -46719.796     -52102.32       50.192924      0.96901568   
    198000   222.48715      126703.32     -46523.433     -51955.638      50.226085      0.96709758   
    199000   223.35053      126783.76     -46630.053     -52083.338      50.236712      0.966484     
    200000   223.20343      126621.78     -46753.754     -52203.448      50.215309      0.96772034   
    201000   224.2385       126397.64     -46544.973     -52019.939      50.185662      0.96943638   
    202000   225.89259      126476.86     -46634.294     -52149.646      50.196144      0.96882919   
    203000   226.47431      126952.81     -46577.265     -52106.82       50.259031      0.96519699   
    204000   222.57669      126294.09     -46685.275     -52119.666      50.171953      0.97023127   
    205000   223.7079       126092.44     -46568.894     -52030.905      50.145237      0.97178285   
    206000   230.01787      125873.17     -46428.084     -52044.157      50.116153      0.9734757    
    207000   222.66982      125736.49     -46639.297     -52075.962      50.098006      0.97453391   
    208000   223.26708      126076.43     -46715.851     -52167.098      50.143114      0.97190624   
    209000   224.24059      126379.47     -46619.61      -52094.627      50.183257      0.96957574   
    210000   222.9178       125923.64     -46604.306     -52047.026      50.12285       0.97308551   
    211000   225.83881      126124.75     -46518.069     -52032.107      50.14952       0.97153389   
    212000   223.6416       126349.31     -46655.828     -52116.22       50.179264      0.96980723   
    213000   223.63483      126622.8      -46733.394     -52193.62       50.215444      0.96771254   
    214000   224.27179      126197.04     -46662.08      -52137.858      50.159099      0.97097739   
    215000   225.90893      125912.46     -46583.129     -52098.88       50.121366      0.97317195   
    216000   226.33966      125823.84     -46554.644     -52080.911      50.109605      0.97385735   
    217000   224.64477      126368.1      -46695.805     -52180.69       50.181752      0.96966302   
    218000   225.5274       126460.37     -46550.952     -52057.388      50.193963      0.9689555    
    219000   224.9771       126293.94     -46608.222     -52101.221      50.171933      0.97023243   
    220000   222.54554      126221.41     -46617.605     -52051.236      50.162327      0.9707899    
    221000   223.66257      126460.82     -46723.268     -52184.172      50.194023      0.96895203   
    222000   222.89709      125840.76     -46642.949     -52085.163      50.111851      0.97372639   
    223000   224.50907      126454.35     -46674.949     -52156.521      50.193166      0.96900164   
    224000   226.47144      126820.47     -46483.654     -52013.139      50.241561      0.96620421   
    225000   222.50733      126511.21     -46690.505     -52123.203      50.200688      0.96856613   
    226000   222.14366      126432.2      -46626.609     -52050.428      50.190235      0.96917141   
    227000   226.15154      126382.71     -46611.522     -52133.196      50.183686      0.96955092   
    228000   224.77896      126417.36     -46678.296     -52166.458      50.188272      0.96928514   
    229000   225.25565      125821.96     -46720.59      -52220.391      50.109355      0.97387191   
    230000   224.0239       126520.1      -46651.435     -52121.161      50.201865      0.96849803   
    231000   225.01121      126345.4      -46719.208     -52213.04       50.178746      0.96983726   
    232000   225.11671      126583.38     -46550.327     -52046.736      50.210233      0.96801388   
    233000   222.85056      125915.73     -46697.51      -52138.588      50.121801      0.97314663   
    234000   229.87416      126126.19     -46549.216     -52161.781      50.14971       0.97152284   
    235000   225.60803      126392.25     -46491.851     -52000.255      50.184949      0.96947772   
    236000   226.98145      126371.3      -46399.896     -51941.833      50.182176      0.96963843   
    237000   227.53644      126020.27     -46569.157     -52124.644      50.135667      0.9723394    
    238000   222.47262      125825.97     -46704.746     -52136.597      50.109888      0.97384084   
    239000   225.80454      126351.31     -46457.683     -51970.885      50.179529      0.96979186   
    240000   229.11559      126537.86     -46409.357     -52003.401      50.204213      0.96836212   
    241000   225.73401      126400.36     -46397.008     -51908.488      50.186022      0.96941551   
    242000   223.50047      126508.47     -46524.191     -51981.138      50.200326      0.96858711   
    243000   222.86948      126511.72     -46615.199     -52056.739      50.200756      0.96856219   
    244000   223.27858      125846.97     -46631.201     -52082.73       50.112676      0.97367834   
    245000   224.78135      125798.26     -46521.469     -52009.689      50.106209      0.97405537   
    246000   226.12911      126072.66     -46424.43      -51945.556      50.142614      0.97193534   
    247000   227.89248      125885.97     -46392.958     -51957.138      50.117852      0.97337671   
    248000   222.49675      125633.41     -46605.48      -52037.919      50.084312      0.9753335    
    249000   227.14643      125470.33     -46429.172     -51975.137      50.062632      0.97660117   
    250000   220.26274      125788.14     -46560.735     -51938.629      50.104865      0.97413374   
    251000   225.69305      126177.88     -46447.18      -51957.66       50.15656       0.97112483   
    252000   224.61472      126424.86     -46442.578     -51926.73       50.189264      0.96922767   
    253000   226.18001      126008.27     -46584.078     -52106.448      50.134077      0.97243195   
    254000   223.33048      125474.66     -46575.498     -52028.294      50.063208      0.9765675    
    255000   228.4708       125692.62     -46505.344     -52083.645      50.092179      0.97487406   
    256000   225.58409      125719.02     -46543.928     -52051.747      50.095686      0.97466934   
    257000   223.84871      125580.5      -46620.908     -52086.356      50.07728       0.97574446   
    258000   222.78949      125830.97     -46600.919     -52040.506      50.110551      0.9738022    
    259000   224.3497       125949.71     -46477.812     -51955.492      50.126309      0.97288411   
    260000   222.29484      126131.94     -46618.938     -52046.448      50.150472      0.97147854   
    261000   224.13842      126028.27     -46591.237     -52063.76       50.136729      0.97227763   
    262000   226.95039      126643.68     -46506.301     -52047.48       50.218204      0.96755299   
    263000   225.99111      125666.28     -46566         -52083.757      50.08868       0.9750784    
    264000   221.95931      126160.31     -46588.956     -52008.274      50.154232      0.97126007   
    265000   229.12848      126253.48     -46343.699     -51938.058      50.166576      0.9705433    
    266000   221.85598      125972.28     -46659.498     -52076.292      50.129303      0.97270979   
    267000   227.00176      126099.19     -46414.528     -51956.961      50.146131      0.97173088   
    268000   224.665        125779.99     -46498.934     -51984.313      50.103783      0.9741969    
    269000   225.94073      125604.41     -46434.985     -51951.512      50.080459      0.97555866   
    270000   227.76217      126231.58     -46448.017     -52009.016      50.163675      0.97071168   
    271000   226.37348      125581.14     -46548.887     -52075.98       50.077365      0.97573946   
    272000   225.73807      126349.57     -46422.967     -51934.546      50.179298      0.96980525   
    273000   220.77274      126064.29     -46627.875     -52018.221      50.141505      0.97199983   
    274000   228.2456       125833.73     -46474.166     -52046.968      50.110918      0.97378079   
    275000   226.80662      126282.5      -46349.16      -51886.828      50.170418      0.97032032   
    276000   226.77969      126293.33     -46442.705     -51979.716      50.171852      0.9702371    
    277000   227.26248      126440.31     -46428.485     -51977.284      50.191308      0.96910926   
    278000   225.55332      126792.4      -46459.278     -51966.346      50.237854      0.96641808   
    279000   223.83348      126262.74     -46630.895     -52095.972      50.167802      0.97047212   
    280000   220.2901       126182.3      -46727.585     -52106.147      50.157146      0.9710908    
    281000   224.2149       126417.18     -46523.906     -51998.296      50.188248      0.96928655   
    282000   228.10712      125971.9      -46460.871     -52030.292      50.129252      0.97271275   
    283000   224.87588      126490.92     -46562.769     -52053.297      50.198004      0.9687215    
    284000   225.10073      126056.37     -46476.618     -51972.636      50.140454      0.97206093   
    285000   226.17401      126810.49     -46587.734     -52109.957      50.240243      0.96628023   
    286000   224.17871      126376.28     -46540.515     -52014.021      50.182834      0.96960026   
    287000   224.329        126356.9      -46608.062     -52085.237      50.180269      0.96974898   
    288000   224.45068      126142.89     -46491.669     -51971.816      50.151923      0.97139424   
    289000   224.42388      125694.66     -46597.784     -52077.276      50.09245       0.97485822   
    290000   225.96049      126130.14     -46352.987     -51869.996      50.150233      0.97149241   
    291000   225.5267       125776.35     -46574.994     -52081.413      50.103299      0.97422509   
    292000   223.98732      125860.7      -46447.235     -51916.068      50.114497      0.97357216   
    293000   223.50299      126406.08     -46558.619     -52015.627      50.186778      0.9693717    
    294000   224.37471      126531.78     -46562.612     -52040.904      50.203409      0.96840863   
    295000   227.71153      126002.99     -46397.184     -51956.947      50.133375      0.97247276   
    296000   225.20645      126277.28     -46469.597     -51968.196      50.169727      0.9703604    
    297000   220.76755      126038.79     -46675.414     -52065.634      50.138123      0.97219654   
    298000   224.18614      125924.86     -46476.879     -51950.566      50.123011      0.97307613   
    299000   223.11814      126882.9      -46363.183     -51810.794      50.249803      0.96572883   
    300000   223.65269      126606.1      -46566.24      -52026.903      50.213236      0.96784022   
    301000   227.99596      126418.92     -46469.117     -52035.825      50.188478      0.96927319   
    302000   224.45524      126215.9      -46479.733     -51959.991      50.161597      0.97083232   
    303000   224.63957      126449.19     -46505.81      -51990.568      50.192484      0.96904115   
    304000   223.07431      126897.61     -46497.069     -51943.61       50.251745      0.96561687   
    305000   225.259        126204.06     -46447.038     -51946.92       50.160029      0.97092336   
    306000   227.68564      126850.74     -46454.18      -52013.311      50.245557      0.96597368   
    307000   223.26316      126884.43     -46495.996     -51947.148      50.250005      0.96571716   
    308000   223.22994      126442.5      -46526.956     -51977.298      50.191598      0.96909245   
    309000   225.50279      126424.38     -46409.69      -51915.525      50.189201      0.96923132   
    310000   222.82037      126651.55     -46499.738     -51940.078      50.219244      0.96749286   
    311000   229.11993      126389.77     -46409.633     -52003.783      50.18462       0.96949676   
    312000   227.25706      127071.36     -46516.95      -52065.616      50.27467       0.96429655   
    313000   223.75647      126467.98     -46528.613     -51991.81       50.194969      0.96889724   
    314000   226.29907      126934.53     -46355.387     -51880.663      50.256618      0.96533599   
    315000   225.36554      126445.77     -46421.503     -51923.986      50.192031      0.96906737   
    316000   224.498        126388.33     -46522.737     -52004.039      50.184429      0.96950784   
    317000   225.1369       126294.6      -46540.779     -52037.68       50.172021      0.9702273    
    318000   226.01595      126595.2      -46432.079     -51950.443      50.211795      0.96792351   
    319000   223.6693       126780.44     -46585.158     -52046.226      50.236273      0.96650931   
    320000   223.6999       126455.27     -46553.446     -52015.261      50.193287      0.96899462   
    321000   223.54329      126274.66     -46419.053     -51877.045      50.16938       0.97038056   
    322000   226.85156      126342.72     -46548.502     -52087.268      50.178391      0.96985783   
    323000   225.27306      125954.08     -46552.097     -52052.322      50.126889      0.97285034   
    324000   222.96802      126694.94     -46533.744     -51977.69       50.224978      0.96716157   
    325000   226.90255      126381.19     -46392.124     -51932.134      50.183485      0.96956256   
    326000   225.53458      126235.66     -46517.662     -52024.273      50.164215      0.97068032   
    327000   226.61128      126565.76     -46429.888     -51962.787      50.207902      0.96814866   
    328000   225.64527      126587.68     -46492.946     -52002.259      50.210801      0.96798102   
    329000   222.86819      126385.14     -46506.262     -51947.771      50.184007      0.9695323    
    330000   228.30086      125966.06     -46453.767     -52027.918      50.128477      0.97275785   
    331000   228.23327      126476.31     -46452.175     -52024.676      50.196071      0.9688334    
    332000   226.99867      126871.36     -46410.262     -51952.62       50.24828       0.96581662   
    333000   224.24735      126508.47     -46515.939     -51991.121      50.200325      0.96858713   
    334000   222.79173      126622.9      -46564.207     -52003.849      50.215457      0.96771176   
    335000   223.66892      126509.25     -46606.141     -52067.2        50.200429      0.96858113   
    336000   226.57592      126209.86     -46485.07      -52017.106      50.160797      0.97087875   
    337000   225.54227      126346.44     -46383.441     -51890.239      50.178885      0.96982922   
    338000   223.17402      126447.18     -46653.553     -52102.529      50.192218      0.96905658   
    339000   226.19446      126652.52     -46469.717     -51992.439      50.219372      0.96748548   
    340000   224.47744      126288.29     -46628.237     -52109.036      50.171185      0.97027584   
    341000   225.03311      126635.4      -46357.372     -51851.739      50.217109      0.96761626   
    342000   224.89874      126420.02     -46527.89      -52018.976      50.188624      0.96926474   
    343000   221.97857      126782.64     -46527.269     -51947.057      50.236564      0.96649251   
    344000   224.51491      126282.39     -46462.864     -51944.579      50.170404      0.97032115   
    345000   226.3404       126080.45     -46596.62      -52122.905      50.143647      0.97187529   
    346000   226.50972      126262.34     -46476.221     -52006.64       50.167749      0.97047519   
    347000   220.7308       125824.08     -46708.621     -52097.943      50.109637      0.97385551   
    348000   229.74327      126407.05     -46480.026     -52089.396      50.186908      0.9693642    
    349000   222.10842      126523.32     -46662.37      -52085.328      50.20229       0.96847338   
    350000   226.65063      126751.26     -46542.977     -52076.836      50.232419      0.96673178   
    351000   224.68311      126776.78     -46398.037     -51883.859      50.23579       0.96653721   
    352000   226.01297      126816.43     -46453.193     -51971.484      50.241027      0.96623497   
    353000   222.19023      126500.44     -46670.976     -52095.932      50.199263      0.9686486    
    354000   226.96819      126712.98     -46463.566     -52005.18       50.227362      0.96702382   
    355000   231.11544      126127.27     -46490.481     -52133.353      50.149853      0.97151449   
    356000   223.78474      126260.73     -46590.903     -52054.79       50.167535      0.97048761   
    357000   225.93759      126136.16     -46574.114     -52090.565      50.151032      0.97144601   
    358000   226.72035      126939.63     -46531.613     -52067.175      50.257291      0.96529722   
    359000   225.43838      126337.58     -46601.766     -52106.028      50.177712      0.96989723   
    360000   225.0509       126910.92     -46492.983     -51987.784      50.253502      0.96551557   
    361000   221.8138       127127.15     -46590.563     -52006.327      50.282026      0.96387337   
    362000   227.25526      126251.25     -46535.778     -52084.4        50.16628       0.97056045   
    363000   226.08315      126702.36     -46522.739     -52042.743      50.225959      0.96710489   
    364000   224.22538      126892.67     -46618.14      -52092.785      50.251092      0.96565449   
    365000   223.65039      127093.92     -46532.437     -51993.044      50.277645      0.96412535   
    366000   224.60862      126825.74     -46570.442     -52054.444      50.242257      0.96616404   
    367000   221.76343      126642.47     -46528.196     -51942.731      50.218044      0.96756223   
    368000   222.80692      126928.69     -46505.714     -51945.727      50.255848      0.9653804    
    369000   230.1478       126583.86     -46529.818     -52149.064      50.210296      0.96801022   
    370000   224.02506      126806.67     -46650.126     -52119.881      50.239738      0.96630937   
    371000   226.5208       126634.29     -46551.753     -52082.443      50.216963      0.96762473   
    372000   225.22988      126870.44     -46616.554     -52115.725      50.248158      0.96582368   
    373000   224.01508      127283.28     -46534.147     -52003.658      50.302602      0.96269106   
    374000   222.52085      126692.17     -46612.628     -52045.656      50.224613      0.96718265   
    375000   227.20129      126863.57     -46509.363     -52056.668      50.247251      0.96587595   
    376000   225.2593       126787.68     -46634.859     -52134.749      50.237229      0.96645412   
    377000   222.96433      126974.11     -46638.942     -52082.797      50.261841      0.96503511   
    378000   223.70216      126769.05     -46697.23      -52159.101      50.23477       0.9665961    
    379000   223.94808      127173.49     -46595.593     -52063.468      50.288135      0.96352212   
    380000   222.06458      126753.68     -46783.102     -52204.99       50.232738      0.96671336   
    381000   223.70796      127064.44     -46654.165     -52116.177      50.273757      0.96434907   
    382000   227.0794       127724.5      -46520.999     -52065.327      50.360659      0.95936542   
    383000   226.36208      126635.76     -46639.54      -52166.355      50.217157      0.96761351   
    384000   227.56495      127086.46     -46608.631     -52164.815      50.276661      0.96418197   
    385000   220.53964      126656.28     -46679.167     -52063.822      50.219869      0.96745676   
    386000   222.72575      127157.46     -46621.983     -52060.014      50.286022      0.9636436    
    387000   226.87009      127020.15     -46596.311     -52135.529      50.267915      0.96468532   
    388000   226.55564      127180.1      -46639.7       -52171.24       50.289006      0.96347209   
    389000   223.63868      127329.51     -46659.989     -52120.31       50.308692      0.96234149   
    390000   227.3219       127240.55     -46487.395     -52037.644      50.296972      0.96301435   
    391000   221.62311      127146.56     -46717.292     -52128.401      50.284586      0.96372618   
    392000   227.43469      127599.08     -46546.976     -52099.979      50.344169      0.96030844   
    393000   229.18767      127752.27     -46525.174     -52120.977      50.364309      0.9591569    
    394000   221.54229      127237.44     -46700.045     -52109.181      50.296563      0.96303785   
    395000   224.8203       127282.28     -46587.581     -52076.752      50.302471      0.96269857   
    396000   225.76201      127071.98     -46737.09      -52249.254      50.274752      0.96429181   
    397000   221.93965      127377.19     -46692.367     -52111.205      50.31497       0.96198131   
    398000   224.0278       127555        -46644.011     -52113.833      50.338371      0.96064032   
    399000   227.46382      126873.98     -46571.246     -52124.96       50.248625      0.96579673   
    400000   222.12912      127338.18     -46718.655     -52142.118      50.309833      0.96227602   
    401000   223.47484      127407.86     -46546.408     -52002.729      50.319009      0.9617497    
    402000   222.50198      126916.76     -46695.143     -52127.711      50.254272      0.96547119   
    403000   223.51554      126928.51     -46710.793     -52168.107      50.255824      0.96538179   
    404000   224.40461      126871.8      -46662.249     -52141.271      50.248338      0.96581327   
    405000   221.75312      127643.91     -46687.322     -52101.605      50.350064      0.95997119   
    406000   227.03489      126975.19     -46609.218     -52152.46       50.261983      0.96502691   
    407000   226.64452      126963.48     -46488.312     -52022.023      50.260439      0.96511588   
    408000   223.04733      127002.18     -46649.487     -52095.369      50.265545      0.96482178   
    409000   229.34086      127026.35     -46455.982     -52055.526      50.268733      0.96463825   
    410000   225.15319      127411.73     -46537.889     -52035.188      50.319518      0.96172047   
    411000   225.43735      127050.97     -46661.205     -52165.442      50.271981      0.96445127   
    412000   224.11806      127354.29     -46623.213     -52095.238      50.311955      0.96215423   
    413000   224.74126      127479.44     -46525.68      -52012.922      50.328431      0.96120965   
    414000   224.97111      126928.18     -46658.564     -52151.417      50.25578       0.96538432   
    415000   224.32298      126951.02     -46605.139     -52082.167      50.258795      0.96521058   
    416000   226.94782      127430.16     -46615.241     -52156.357      50.321944      0.96158141   
    417000   229.65525      127533.93     -46447.219     -52054.439      50.3356        0.960799     
    418000   224.83254      127317.65     -46608.099     -52097.569      50.307129      0.96243119   
    419000   224.34502      127341.83     -46492.902     -51970.468      50.310315      0.96224837   
    420000   226.13144      127804.46     -46568.358     -52089.542      50.371165      0.95876527   
    421000   223.59031      127155.02     -46744.584     -52203.723      50.285701      0.96366206   
    422000   221.26765      127143.99     -46713.65      -52116.08       50.284247      0.96374568   
    423000   227.50094      127402.62     -46564.5       -52119.121      50.318319      0.96178925   
    424000   224.52449      127498.75     -46620.767     -52102.715      50.330971      0.96106412   
    425000   222.66294      127084.71     -46656.595     -52093.092      50.27643       0.96419527   
    426000   225.36383      127515.19     -46550.744     -52053.186      50.333134      0.9609402    
    427000   224.78741      126905.62     -46713.278     -52201.646      50.252803      0.9655559    
    428000   221.50371      127093.97     -46705.475     -52113.669      50.277652      0.96412496   
    429000   224.19823      127251.68     -46708.203     -52182.186      50.29844       0.96293007   
    430000   225.32774      127635.4      -46608.986     -52110.547      50.348945      0.96003518   
    431000   223.68369      127720.01     -46724.358     -52185.777      50.360068      0.95939921   
    432000   223.86327      127002.42     -46739.076     -52204.88       50.265576      0.96482001   
    433000   226.71014      127430.58     -46538.217     -52073.53       50.321999      0.96157827   
    434000   226.55804      126990.67     -46555.847     -52087.446      50.264026      0.96490925   
    435000   222.43705      126960.98     -46620.785     -52051.767      50.260108      0.96513491   
    436000   227.03285      127020.94     -46575.452     -52118.644      50.268019      0.96467934   
    437000   224.41656      127141.41     -46530.654     -52009.967      50.283906      0.96376525   
    438000   224.90645      127098.78     -46715.233     -52206.507      50.278285      0.96408851   
    439000   224.01741      127414.09     -46633.436     -52103.004      50.319828      0.96170269   
    440000   227.41082      126988.9      -46472.417     -52024.838      50.263792      0.96492274   
    441000   222.9387       127114.18     -46635.521     -52078.751      50.280316      0.96397171   
    442000   224.04649      126985.56     -46696.373     -52166.651      50.263351      0.96494811   
    443000   223.87712      127333.74     -46561.806     -52027.949      50.309249      0.96230954   
    444000   224.16491      126833.46     -46699.294     -52172.463      50.243275      0.96610528   
    445000   227.8431       127030.82     -46493.684     -52056.659      50.269323      0.96460427   
    446000   225.82435      127121.11     -46700.361     -52214.047      50.281229      0.96391918   
    447000   225.44663      126954.87     -46669.994     -52174.457      50.259303      0.96518131   
    448000   227.99174      127193.6      -46531.238     -52097.843      50.290785      0.96336982   
    449000   224.33517      127084.5      -46642.453     -52119.779      50.276403      0.96419682   
    450000   221.09071      126961.93     -46657.687     -52055.797      50.260234      0.96512766   
    451000   225.25128      127095.35     -46472.784     -51972.478      50.277834      0.96411449   
    452000   221.02056      126743.89     -46722.382     -52118.779      50.231446      0.96678798   
    453000   224.07238      126712.39     -46490.486     -51961.396      50.227284      0.96702835   
    454000   224.45278      126815.6      -46702.058     -52182.256      50.240917      0.96624131   
    455000   224.85731      126899.72     -46630.77      -52120.844      50.252023      0.96560082   
    456000   224.1717       126785.4      -46589.776     -52063.111      50.236928      0.96647149   
    457000   222.02703      126808.73     -46663.848     -52084.819      50.24001       0.96629367   
    458000   223.44933      126933.16     -46657.789     -52113.486      50.256437      0.96534645   
    459000   224.88638      126681.31     -46509.27      -52000.054      50.223177      0.96726562   
    460000   224.86413      126491.29     -46614.879     -52105.12       50.198053      0.96871868   
    461000   226.86752      126603.36     -46574.538     -52113.694      50.212874      0.96786111   
    462000   227.68801      126889.49     -46503.806     -52062.994      50.250673      0.96567869   
    463000   222.35693      126569.22     -46710.76      -52139.786      50.20836       0.96812219   
    464000   226.63399      126327.78     -46495.282     -52028.736      50.176415      0.96997247   
    465000   226.61934      126554.69     -46612.365     -52145.461      50.206438      0.96823337   
    466000   228.12432      126916.12     -46433.025     -52002.866      50.254188      0.96547604   
    467000   226.25581      126867.45     -46527.17      -52051.39       50.247764      0.96584639   
    468000   227.5692       126361.87     -46565.272     -52121.559      50.180927      0.96971085   
    469000   225.531        126616.94     -46595.174     -52101.697      50.214669      0.96775735   
    470000   225.51482      126470.25     -46618.199     -52124.327      50.195269      0.96887983   
    471000   226.19564      126988.08     -46578.234     -52100.985      50.263685      0.96492889   
    472000   221.90502      126722.28     -46586.667     -52004.659      50.228591      0.96695287   
    473000   228.02032      126464.14     -46459.838     -52027.14       50.194461      0.96892666   
    474000   226.6224       126717.55     -46561.323     -52094.493      50.227966      0.96698893   
    475000   223.32504      126595.72     -46570.333     -52022.996      50.211864      0.96791952   
    476000   227.63881      126161.16     -46593.024     -52151.011      50.154344      0.97125356   
    477000   221.46664      126732.55     -46591.704     -51998.993      50.229948      0.96687447   
    478000   224.59998      126755.77     -46623.775     -52107.566      50.233016      0.96669736   
    479000   225.70784      126241.82     -46619.782     -52130.623      50.165031      0.97063298   
    480000   224.54794      126555.97     -46651.07      -52133.591      50.206608      0.96822356   
    481000   224.95999      126740.15     -46588.539     -52081.121      50.230951      0.96681657   
    482000   228.31098      126199.21     -46556.277     -52130.676      50.159386      0.97096068   
    483000   224.4946       126460.83     -46591.345     -52072.564      50.194023      0.96895199   
    484000   225.96803      126743.83     -46621.41      -52138.603      50.231437      0.9667885    
    485000   222.385        126713.84     -46633.363     -52063.074      50.227476      0.96701725   
    486000   228.23737      126809.15     -46538.298     -52110.899      50.240065      0.96629048   
    487000   224.56881      126593.5      -46608.999     -52092.029      50.211571      0.9679365    
    488000   225.5672       126594.6      -46591.78      -52099.187      50.211716      0.96792808   
    489000   223.87074      126242.41     -46625.418     -52091.404      50.165109      0.97062841   
    490000   226.04941      126853.72     -46592.379     -52111.56       50.245951      0.96595094   
    491000   226.11356      126761.8      -46554.996     -52075.743      50.233812      0.96665139   
    492000   224.25011      126414.76     -46635.287     -52110.536      50.187927      0.96930512   
    493000   228.39034      126562.07     -46458.016     -52034.352      50.207415      0.96817687   
    494000   225.91175      126638.72     -46569.268     -52085.088      50.217548      0.96759088   
    495000   224.30598      126678.42     -46556.868     -52033.482      50.222796      0.96728763   
    496000   222.3601       126539.58     -46612.849     -52041.952      50.204441      0.96834895   
    497000   219.7497       126635.33     -46701.348     -52066.716      50.2171        0.96761681   
    498000   222.43783      126667.01     -46553.363     -51984.364      50.221287      0.96737478   
    499000   227.7274       126474.01     -46664.08      -52224.23       50.195767      0.968851     
    500000   226.97834      127259.6      -46514.689     -52056.55       50.299482      0.96287018   
    501000   224.13213      126513.85     -46606.839     -52079.208      50.201038      0.96854589   
    502000   226.8268       126704        -46615.344     -52153.505      50.226176      0.96709235   
    503000   226.35705      126936.54     -46645.16      -52171.852      50.256884      0.96532069   
    504000   224.77731      126676.02     -46618.177     -52106.298      50.222478      0.96730596   
    505000   223.402        126784.21     -46751.121     -52205.663      50.236772      0.96648052   
    506000   224.29689      126907.05     -46610.451     -52086.842      50.252991      0.96554504   
    507000   225.37184      126970.04     -46701.974     -52204.611      50.261303      0.96506606   
    508000   224.0827       127171.71     -46658.328     -52129.49       50.2879        0.96353565   
    509000   224.04606      126982.99     -46699.819     -52170.086      50.263013      0.96496762   
    510000   225.63427      126997.97     -46608.513     -52117.558      50.264989      0.96485378   
    511000   224.08039      126898.55     -46639.172     -52110.278      50.251869      0.96560974   
    512000   222.50997      126785.93     -46765.734     -52198.497      50.236999      0.96646745   
    513000   222.57686      127165.35     -46764.247     -52198.642      50.287062      0.96358381   
    514000   221.19727      126331.94     -46793.066     -52193.777      50.176965      0.96994053   
    515000   224.72852      126917.61     -46686.569     -52173.499      50.254384      0.96546473   
    516000   224.47647      127291.78     -46693.638     -52174.414      50.303722      0.96262674   
    517000   225.17994      126721.57     -46566.785     -52064.737      50.228497      0.96695829   
    518000   222.7209       126889.32     -46598.554     -52036.466      50.25065       0.96567998   
    519000   226.85208      126763.52     -46493.467     -52032.245      50.234039      0.96663828   
    520000   230.5218       127013.99     -46461.881     -52090.259      50.267103      0.96473209   
    521000   223.92052      126803.09     -46661.851     -52129.053      50.239265      0.96633668   
    522000   224.89525      127528.36     -46630.115     -52121.116      50.334868      0.96084093   
    523000   221.84199      127217.09     -46782.054     -52198.507      50.293882      0.96319188   
    524000   227.23341      127690.14     -46491.098     -52039.187      50.356142      0.95962362   
    525000   225.11626      126852.98     -46557.947     -52054.344      50.245853      0.96595659   
    526000   223.01788      126732.58     -46657.923     -52103.087      50.229951      0.9668743    
    527000   224.78508      126948.02     -46585.559     -52073.87       50.258398      0.96523345   
    528000   226.87147      126541.96     -46687.247     -52226.499      50.204756      0.96833072   
    529000   225.97912      126952.45     -46456.481     -51973.945      50.258983      0.96519973   
    530000   224.12793      126888.35     -46665.18      -52137.446      50.250523      0.96568733   
    531000   224.74168      126626.13     -46576.515     -52063.766      50.215884      0.96768711   
    532000   225.50273      127228.92     -46584.05      -52089.883      50.295441      0.96310233   
    533000   224.17567      126974.42     -46597.714     -52071.146      50.261882      0.96503276   
    534000   226.05259      127195.01     -46587.478     -52106.736      50.290971      0.96335912   
    535000   224.44178      127502.32     -46740.183     -52220.112      50.331441      0.96103719   
    536000   226.58022      126729.14     -46603.858     -52135.999      50.229498      0.96690049   
    537000   223.87192      127111.28     -46739.377     -52205.392      50.279934      0.96399369   
    538000   226.50916      127296.88     -46674.849     -52205.255      50.304394      0.96258817   
    539000   225.94517      126802.31     -46631.856     -52148.492      50.239162      0.96634259   
    540000   225.99139      127575.67     -46729.475     -52247.239      50.341091      0.96048462   
    541000   224.66964      127386.59     -46531.938     -52017.43       50.316209      0.96191027   
    542000   223.63791      127406.02     -46628.407     -52088.709      50.318765      0.96176364   
    543000   225.00593      127330.07     -46676.037     -52169.74       50.308765      0.96233728   
    544000   222.9195       126771.91     -46804.503     -52247.264      50.235147      0.96657431   
    545000   226.37924      126656.91     -46600.972     -52128.206      50.219952      0.96745193   
    546000   223.06304      126347.08     -46665.702     -52111.968      50.17897       0.9698243    
    547000   224.58501      126674.31     -46544.132     -52027.558      50.222251      0.96731907   
    548000   222.61603      126920.2      -46554.017     -51989.369      50.254727      0.96544496   
    549000   226.67191      126966.99     -46633.971     -52168.35       50.260902      0.9650892    
    550000   223.65286      127038.89     -46659.876     -52120.543      50.270387      0.96454303   
    551000   228.28478      126624.18     -46495.382     -52069.141      50.215627      0.96770196   
    552000   227.74453      126747.61     -46660.54      -52221.108      50.231938      0.9667596    
    553000   227.27832      126638.32     -46506.212     -52055.398      50.217495      0.96759397   
    554000   224.90154      126983.99     -46651.22      -52142.374      50.263145      0.96496001   
    555000   225.84435      126952.94     -46589.269     -52103.443      50.259048      0.96519598   
    556000   225.24047      127027.06     -46527.601     -52027.03       50.268826      0.96463284   
    557000   227.03714      127228.94     -46587.802     -52131.099      50.295443      0.96310218   
    558000   224.86541      126780.71     -46691.623     -52181.895      50.23631       0.9665072    
    559000   225.55067      126515.77     -46603.447     -52110.451      50.201291      0.96853125   
    560000   226.7969       126973.76     -46561.473     -52098.904      50.261795      0.96503777   
    561000   225.9351       126611.38     -46706.538     -52222.928      50.213934      0.9677998    
    562000   223.61252      126874.11     -46671.384     -52131.066      50.248642      0.96579574   
    563000   225.20355      126978.69     -46715.562     -52214.091      50.262446      0.96500025   
    564000   220.50076      126888.61     -46616.279     -51999.985      50.250557      0.96568535   
    565000   227.0738       126539.48     -46502.777     -52046.969      50.204427      0.96834973   
    566000   221.98585      126768.27     -46648.731     -52068.696      50.234666      0.96660211   
    567000   223.51253      126623.29     -46512.793     -51970.033      50.215508      0.96770884   
    568000   225.59628      127258.9      -46547.476     -52055.593      50.29939       0.96287549   
    569000   226.67266      127008.53     -46596.414     -52130.812      50.266383      0.96477353   
    570000   224.77914      127178.31     -46691.639     -52179.804      50.28877       0.96348565   
    571000   225.76358      126190.1      -46741.635     -52253.837      50.15818       0.97103076   
    572000   221.63162      127073.69     -46743.351     -52154.668      50.274977      0.96427887   
    573000   221.36413      126868.97     -46806.141     -52210.927      50.247965      0.96583481   
    574000   225.81367      126847.65     -46598.932     -52112.356      50.245149      0.96599721   
    575000   222.14824      127060.54     -46692.624     -52116.555      50.273243      0.96437864   
    576000   227.01253      127074.37     -46671.167     -52213.863      50.275066      0.96427371   
    577000   224.31661      127355.91     -46606.532     -52083.405      50.312169      0.962142     
    578000   224.40486      127257.88     -46574.784     -52053.812      50.299256      0.96288315   
    579000   221.47079      127261.8      -46728.489     -52135.879      50.299772      0.96285354   
    580000   225.19766      126968.16     -46689.777     -52188.161      50.261056      0.96508033   
    581000   225.8378       126695.5      -46608.064     -52122.078      50.225052      0.96715727   
    582000   220.77224      127073.99     -46769.326     -52159.66       50.275017      0.96427655   
    583000   222.44462      127091.55     -46683.471     -52114.638      50.277333      0.96414332   
    584000   223.1643       126993.54     -46608.824     -52057.562      50.264404      0.96488746   
    585000   227.29876      127430.8      -46613.665     -52163.349      50.322028      0.96157656   
    586000   221.11087      127233.24     -46791.003     -52189.605      50.29601       0.96306962   
    587000   224.22478      127260.78     -46685.308     -52159.939      50.299639      0.96286121   
    588000   225.77649      127280.79     -46615.455     -52127.972      50.302274      0.96270988   
    589000   229.65955      127374.39     -46498.962     -52106.287      50.314602      0.96200241   
    590000   226.66517      126720        -46682.397     -52216.612      50.22829       0.96697024   
    591000   224.74834      126807.16     -46768.108     -52255.521      50.239803      0.9663056    
    592000   222.76029      127025.73     -46696.918     -52135.793      50.268652      0.96464291   
    593000   227.10884      127205.59     -46581.233     -52126.281      50.292365      0.96327903   
    594000   224.04363      126806.26     -46727.992     -52198.2        50.239684      0.96631248   
    595000   223.29179      126914.39     -46661.282     -52113.133      50.25396       0.96548921   
    596000   225.97796      127321.85     -46657.539     -52174.975      50.307682      0.96239943   
    597000   225.72961      127582.15     -46702.09      -52213.462      50.341942      0.9604359    
    598000   223.34482      127930.25     -46679.695     -52132.841      50.387686      0.95782253   
    599000   225.51654      127301.64     -46736.722     -52242.892      50.305021      0.96255217   
    600000   227.11519      127417.32     -46614.674     -52159.877      50.320253      0.96167834   
    601000   223.60211      127916.93     -46780.745     -52240.173      50.385938      0.95792223   
    602000   224.51171      126843.59     -46643.037     -52124.673      50.244613      0.96602813   
    603000   224.95856      127288.3      -46606.289     -52098.836      50.303264      0.96265306   
    604000   223.99407      127047.79     -46691.093     -52160.091      50.271561      0.96447544   
    605000   225.95787      126459.79     -46618.244     -52135.189      50.193886      0.96895994   
    606000   224.66659      126778.24     -46693.256     -52178.674      50.235984      0.96652603   
    607000   226.12012      127005.48     -46660.325     -52181.232      50.265979      0.96479677   
    608000   227.9728       127299.4      -46442.305     -52008.446      50.304725      0.96256915   
    609000   223.83801      127101.19     -46731.37      -52196.557      50.278603      0.96407023   
    610000   230.06598      126851.46     -46546.161     -52163.409      50.245653      0.96596814   
    611000   226.48507      126993.74     -46620.584     -52150.402      50.264432      0.96488589   
    612000   226.21244      127235.34     -46547.546     -52070.707      50.296286      0.96305378   
    613000   223.61418      126990.16     -46597.708     -52057.431      50.263959      0.96491309   
    614000   222.76193      126322.65     -46761.683     -52200.597      50.175734      0.97001192   
    615000   222.81594      127107.58     -46632.077     -52072.31       50.279446      0.96402177   
    616000   224.95715      127257.53     -46573.901     -52066.414      50.29921       0.96288585   
    617000   224.96062      127210.6      -46640.182     -52132.779      50.293027      0.96324102   
    618000   224.74714      126778.17     -46798.83      -52286.214      50.235974      0.96652656   
    619000   225.20794      126517.78     -46804.401     -52303.036      50.201557      0.96851584   
    620000   228.81383      127017.81     -46601.405     -52188.081      50.267606      0.9647031    
    621000   224.1519       126474.94     -46652.118     -52124.969      50.19589       0.96884387   
    622000   224.56541      126894.01     -46736.203     -52219.151      50.251269      0.96564429   
    623000   223.48738      127295.97     -46745.673     -52202.299      50.304274      0.96259506   
    624000   225.93028      126882.24     -46747.223     -52263.494      50.249716      0.96573383   
    625000   220.47122      126727.92     -46712.49      -52095.475      50.229336      0.96690984   
    626000   225.42727      126707.3      -46675.21      -52179.201      50.226611      0.96706721   
    627000   224.58449      126788.54     -46706.367     -52189.781      50.237343      0.96644755   
    628000   224.297        126928.35     -46669.622     -52146.016      50.255802      0.96538301   
    629000   222.61716      127071        -46847.874     -52283.253      50.274622      0.96429928   
    630000   225.95668      127664.48     -46631.442     -52148.359      50.352769      0.95981651   
    631000   223.31084      127244.8      -46818.046     -52270.363      50.297533      0.96298216   
    632000   225.95185      127262.71     -46731.388     -52248.187      50.299892      0.96284666   
    633000   221.90692      127269.96     -46795.429     -52213.467      50.300847      0.96279179   
    634000   224.14203      127340.15     -46728.252     -52200.862      50.310093      0.96226106   
    635000   226.72552      127160.84     -46568.774     -52104.462      50.286468      0.96361796   
    636000   224.12116      127428.34     -46714.055     -52186.156      50.321704      0.96159513   
    637000   224.66697      126836.98     -46601.071     -52086.498      50.24374       0.96607845   
    638000   226.41665      127518.13     -46558.4       -52086.548      50.333521      0.96091803   
    639000   223.19839      127688.03     -46798.929     -52248.499      50.355865      0.95963948   
    640000   227.54504      127200.49     -46638.209     -52193.907      50.291694      0.96331761   
    641000   225.62507      127251.29     -46645.637     -52154.457      50.298388      0.96293302   
    642000   222.46876      127390.26     -46672.943     -52104.699      50.316692      0.96188254   
    643000   222.38641      127206        -46740.35      -52170.095      50.292419      0.96327592   
    644000   222.56453      127206.64     -46782.496     -52216.591      50.292504      0.96327107   
    645000   224.73152      127729.49     -46621.202     -52108.206      50.361315      0.95932798   
    646000   222.62139      127780.17     -46877.209     -52312.692      50.367974      0.9589475    
    647000   225.30934      127510.76     -46712.711     -52213.823      50.332552      0.96097357   
    648000   222.83157      127516.22     -46822.724     -52263.339      50.33327       0.96093241   
    649000   227.67424      127227.48     -46638.588     -52197.44       50.295251      0.96311324   
    650000   223.51079      127923.63     -46745.238     -52202.436      50.386818      0.95787204   
    651000   223.34034      127145.41     -46809.914     -52262.95       50.284433      0.96373493   
    652000   222.73727      127357.33     -46731.471     -52169.783      50.312356      0.96213126   
    653000   227.67376      126936.79     -46703.915     -52262.756      50.256917      0.96531879   
    654000   227.55965      127047.43     -46753.012     -52309.066      50.271514      0.96447814   
    655000   225.41307      127204.45     -46765.117     -52268.761      50.292215      0.96328765   
    656000   227.65972      127051.21     -46631.306     -52189.804      50.272012      0.96444947   
    657000   223.78564      127010.42     -46711.224     -52175.133      50.266631      0.96475923   
    658000   225.52242      127075.89     -46703.168     -52209.481      50.275268      0.96426213   
    659000   228.0604       127468.88     -46657.898     -52226.179      50.32704       0.96128933   
    660000   225.35046      127496.03     -46825.469     -52327.584      50.330613      0.96108459   
    661000   225.5012       127507.82     -46673.454     -52179.249      50.332165      0.96099573   
    662000   226.92684      127012.11     -46750.391     -52290.995      50.266855      0.96474637   
    663000   221.84056      127323.08     -46779.824     -52196.242      50.307845      0.96239007   
    664000   223.55739      127557.91     -46707.465     -52165.801      50.338755      0.96061836   
    665000   223.34192      127120.61     -46876.134     -52329.209      50.281164      0.96392297   
    666000   224.36422      126849.53     -46792.555     -52270.59       50.245397      0.96598287   
    667000   223.81849      127061.49     -46775.638     -52240.349      50.273368      0.96437145   
    668000   222.21598      127015.71     -46723.866     -52149.45       50.26733       0.96471903   
    669000   225.29047      126863.64     -46636.807     -52137.458      50.247261      0.96587542   
    670000   226.36498      127069.83     -46693.606     -52220.492      50.274468      0.96430814   
    671000   223.79714      127108.88     -46738.726     -52202.915      50.279617      0.96401192   
    672000   228.23571      126823.26     -46858.824     -52431.384      50.241929      0.96618295   
    673000   225.83877      127087.29     -46691.633     -52205.671      50.276771      0.96417566   
    674000   221.97061      126806.49     -46847.192     -52266.786      50.239714      0.96631074   
    675000   225.39378      127357.49     -46574.428     -52077.6        50.312376      0.96213011   
    676000   225.88434      127036.22     -46670.271     -52185.422      50.270035      0.96456325   
    677000   222.5809       127382.81     -46762.542     -52197.036      50.31571       0.96193887   
    678000   224.48133      127458.43     -46674.422     -52155.317      50.325665      0.96136811   
    679000   223.63889      127291.98     -46745.502     -52205.827      50.303748      0.96262524   
    680000   222.28021      127042.31     -46653.078     -52080.23       50.270839      0.964517     
    681000   224.9122       126873.75     -46625.361     -52116.775      50.248596      0.96579843   
    682000   226.93677      127109.93     -46619.601     -52160.447      50.279756      0.96400392   
    683000   225.26617      127014.26     -46785.948     -52286.005      50.267138      0.96473005   
    684000   227.34767      126759.46     -46709.171     -52260.05       50.233502      0.96666926   
    685000   221.98299      126689.33     -46726.214     -52146.11       50.224237      0.96720433   
    686000   225.92199      126761.4      -46809.882     -52325.952      50.233759      0.96665447   
    687000   228.50522      126843.57     -46537.821     -52116.963      50.244611      0.96602824   
    688000   224.529        127351.27     -46737.107     -52219.166      50.311558      0.96217704   
    689000   224.81058      126986.15     -46642.955     -52131.888      50.26343       0.96494357   
    690000   228.70971      127019.59     -46708.008     -52292.142      50.267841      0.9646896    
    691000   231.9215       127204.77     -46584.159     -52246.712      50.292258      0.96328517   
    692000   223.90709      127035.76     -46775.892     -52242.766      50.269974      0.9645668    
    693000   224.6511       126933.62     -46752.033     -52237.072      50.256499      0.96534289   
    694000   226.79708      126885.65     -46634.153     -52171.589      50.250166      0.96570791   
    695000   224.95515      127078.25     -46723.784     -52216.248      50.275579      0.96424422   
    696000   223.8019       126895.4      -46663.262     -52127.568      50.251454      0.96563366   
    697000   227.19188      126499.08     -46745.656     -52292.731      50.199083      0.96865904   
    698000   224.58082      126777.13     -46738.272     -52221.596      50.235836      0.96653455   
    699000   224.90191      126963.47     -46750.968     -52242.131      50.260438      0.96511594   
    700000   225.27613      127099.85     -46642.024     -52142.325      50.278427      0.96408039   
    701000   221.93014      126561.47     -46709.906     -52128.511      50.207335      0.96818147   
    702000   225.07184      127056.38     -46823.83      -52319.143      50.272693      0.96441026   
    703000   225.19796      126858.76     -46669.99      -52168.382      50.246616      0.9659126    
    704000   225.8439       126680.79     -46752.339     -52266.502      50.223108      0.96726957   
    705000   222.11888      126877.79     -46832.143     -52255.357      50.249128      0.96576773   
    706000   226.6888       127129.7      -46668.275     -52203.067      50.282363      0.96385401   
    707000   224.77564      126999.14     -46622.576     -52110.656      50.265144      0.96484488   
    708000   228.55525      127077.51     -46486.917     -52067.28       50.275481      0.96424986   
    709000   225.14042      127133.44     -46661.571     -52158.558      50.282855      0.96382567   
    710000   227.40108      126884.17     -46874.46      -52426.643      50.249971      0.96571913   
    711000   225.43331      126723.02     -46850.938     -52355.076      50.228688      0.96694724   
    712000   226.88422      126589.6      -46726.083     -52265.646      50.211054      0.96796638   
    713000   222.46246      126430.24     -46873.255     -52304.857      50.189976      0.96918645   
    714000   227.34067      127247.98     -46659.878     -52210.586      50.297952      0.96295808   
    715000   226.42789      126965.65     -46656.048     -52184.469      50.260724      0.96509942   
    716000   228.65578      126480.15     -46524.547     -52107.364      50.196579      0.96880399   
    717000   223.63679      126438.88     -46769.819     -52230.093      50.191119      0.96912018   
    718000   225.36615      126193.95     -46714.396     -52216.894      50.15869       0.97100114   
    719000   225.22333      126411.95     -46627.983     -52126.995      50.187555      0.96932669   
    720000   225.54715      126890.21     -46614.48      -52121.398      50.250768      0.96567319   
    721000   222.03917      126520.04     -46760.322     -52181.589      50.201855      0.96849856   
    722000   221.99318      126950.26     -46631.595     -52051.74       50.258694      0.96521638   
    723000   224.25026      126507.59     -46706.945     -52182.198      50.200209      0.96859384   
    724000   225.97956      127126.48     -46664.917     -52182.392      50.281938      0.96387841   
    725000   226.44797      127117.77     -46526.011     -52054.923      50.28079       0.96394445   
    726000   226.49163      126445.56     -46647.141     -52177.118      50.192003      0.96906902   
    727000   223.94725      126881.77     -46712.928     -52180.783      50.249654      0.96573744   
    728000   222.93246      126809.44     -46613.783     -52056.861      50.240103      0.96628828   
    729000   224.47895      127468.23     -46592.689     -52073.525      50.326955      0.96129422   
    730000   221.42363      127247.14     -46714.487     -52120.726      50.297841      0.96296444   
    731000   226.14901      127088.39     -46677.873     -52199.485      50.276916      0.9641673    
    732000   229.2647       127099.12     -46580.783     -52178.467      50.27833       0.96408593   
    733000   224.31764      127047.44     -46711.89      -52188.788      50.271515      0.9644781    
    734000   226.47372      127312.54     -46585.99      -52115.53       50.306456      0.9624698    
    735000   225.34459      127222.58     -46652.537     -52154.509      50.294604      0.96315038   
    736000   226.31184      127012.04     -46627.125     -52152.713      50.266845      0.96474691   
    737000   221.24956      126961.05     -46748.857     -52150.845      50.260118      0.96513437   
    738000   221.71237      126996.8      -46734.802     -52148.09       50.264835      0.96486265   
    739000   224.79449      127129.75     -46688.753     -52177.293      50.282369      0.96385363   
    740000   225.85211      126905.35     -46746.45      -52260.813      50.252767      0.96555797   
    741000   225.9587       127259.77     -46605.775     -52122.741      50.299505      0.96286889   
    742000   223.64314      126991.58     -46769.724     -52230.153      50.264147      0.96490231   
    743000   222.56491      127232.72     -46805.142     -52239.245      50.295941      0.96307357   
    744000   224.52266      126955.27     -46656.655     -52138.558      50.259355      0.96517831   
    745000   227.07366      126714.7      -46486.639     -52030.827      50.227589      0.96701071   
    746000   223.49087      126646.93     -46727.689     -52184.401      50.218633      0.96752816   
    747000   226.87076      126650.78     -46559.524     -52098.759      50.219142      0.96749879   
    748000   229.97683      127090.79     -46510.514     -52125.585      50.277232      0.96414908   
    749000   227.16276      127526.73     -46658.023     -52204.387      50.334652      0.96085327   
[...]
   1818000   225.24536      126577.65     -46429.529     -51929.078      50.209474      0.96805775   
   1819000   224.97519      126383.47     -46475.291     -51968.243      50.183786      0.96954509   
   1820000   223.60853      126254.65     -46508.681     -51968.265      50.166731      0.97053429   
   1821000   225.94473      126286.91     -46476.53      -51993.154      50.171002      0.97028642   
   1822000   225.06168      125936.65     -46469.59      -51964.654      50.124576      0.97298503   
   1823000   223.7946       126533.04     -46584.089     -52048.217      50.203575      0.96839903   
   1824000   225.40832      126164.06     -46389.588     -51893.116      50.154728      0.97123123   
   1825000   225.17955      126421.51     -46521.301     -52019.243      50.188821      0.96925336   
   1826000   221.64486      126131.6      -46502.729     -51914.369      50.150426      0.97148118   
   1827000   226.90292      125841.43     -46531.975     -52071.995      50.111939      0.97372127   
   1828000   228.14397      126609.19     -46387.221     -51957.542      50.213644      0.9678166    
   1829000   224.22628      126177.4      -46413.49      -51888.158      50.156496      0.97112852   
   1830000   227.83721      125768.64     -46367.8       -51930.631      50.102276      0.97428476   
   1831000   222.81944      126168.76     -46585.146     -52025.464      50.155352      0.97119501   
   1832000   223.33893      125915.85     -46463.17      -51916.172      50.121816      0.97314573   
   1833000   227.55237      126061.45     -46273.628     -51829.504      50.141128      0.97202176   
   1834000   229.13815      125861.03     -46232.175     -51826.77       50.114541      0.97356963   
   1835000   221.73727      125664.73     -46387.556     -51801.452      50.088474      0.97509043   
   1836000   227.36839      125294.28     -46327.571     -51878.956      50.039206      0.97797343   
   1837000   222.60072      126052.45     -46441.624     -51876.602      50.139934      0.97209118   
   1838000   227.93775      125642.11     -46323.302     -51888.588      50.085469      0.97526594   
   1839000   223.44091      125902.41     -46455.122     -51910.614      50.120033      0.9732496    
   1840000   224.62881      126207.62     -46302.626     -51787.121      50.1605        0.97089602   
   1841000   224.13573      126033.36     -46449.398     -51921.855      50.137403      0.9722384    
   1842000   229.06571      125710.09     -46181.477     -51774.303      50.094499      0.9747386    
   1843000   227.29311      125730.08     -46326.766     -51876.313      50.097155      0.97458358   
   1844000   226.69361      125590.02     -46416.077     -51950.986      50.078545      0.97567048   
   1845000   221.78311      125621.19     -46559.104     -51974.119      50.082688      0.97542839   
   1846000   225.53408      125515.39     -46325.284     -51831.882      50.068625      0.97625056   
   1847000   224.74008      125529.36     -46425.743     -51912.955      50.070482      0.97614195   
   1848000   222.2612       125891.38     -46516.079     -51942.767      50.118569      0.97333488   
   1849000   222.98518      126162.27     -46331.255     -51775.62       50.154491      0.97124502   
   1850000   225.32531      125914.04     -46467.162     -51968.663      50.121577      0.9731597    
   1851000   225.20302      125895.82     -46337.98      -51836.495      50.119158      0.97330059   
   1852000   219.57698      125868.5      -46577.339     -51938.49       50.115533      0.97351181   
   1853000   222.79207      125901.91     -46377.673     -51817.323      50.119967      0.97325347   
   1854000   220.32163      125864.07     -46422.227     -51801.559      50.114944      0.97354611   
   1855000   225.02713      125726.41     -46463.421     -51957.642      50.096668      0.97461201   
   1856000   224.7201       126225.35     -46298.286     -51785.01       50.162849      0.97075961   
   1857000   222.84181      125802.52     -46406.887     -51847.751      50.106775      0.97402238   
   1858000   226.71132      125723.11     -46265.957     -51801.299      50.09623       0.97463759   
   1859000   223.3726       125394.21     -46411.678     -51865.503      50.052506      0.977194     
   1860000   222.95407      125930.9      -46405.512     -51849.117      50.123813      0.97302942   
   1861000   225.43309      125408.03     -46374.689     -51878.822      50.054345      0.97708635   
   1862000   222.94772      125626.03     -46494.53      -51937.98       50.083331      0.9753908    
   1863000   224.15385      125563.5      -46279.528     -51752.427      50.075021      0.97587649   
   1864000   224.8674       125659.96     -46320.207     -51810.528      50.08784       0.97512744   
   1865000   225.01208      125554.08     -46424.615     -51918.468      50.073769      0.97594973   
   1866000   224.25974      125856.16     -46394.092     -51869.576      50.113894      0.97360731   
   1867000   225.14546      125757.92     -46517.857     -52014.967      50.100852      0.97436785   
   1868000   226.68266      126046.84     -46299.644     -51834.286      50.139191      0.9721344    
   1869000   223.98633      125438.52     -46454.258     -51923.067      50.058401      0.97684883   
   1870000   223.01777      125948.51     -46407.187     -51852.348      50.12615       0.97289337   
   1871000   223.41444      126021.82     -46375.275     -51830.12       50.135873      0.97232745   
   1872000   223.85771      125886.87     -46488.945     -51954.614      50.11797       0.97336979   
   1873000   225.6048       126147.27     -46320.746     -51829.071      50.152503      0.9713605    
   1874000   224.37159      125557.49     -46409.729     -51887.945      50.074222      0.97592321   
   1875000   225.29931      125552.77     -46512.053     -52012.919      50.073594      0.97595996   
   1876000   224.15614      125621.71     -46407.029     -51879.984      50.082758      0.97542431   
   1877000   221.78102      125815.71     -46408.11      -51823.074      50.108526      0.97392028   
   1878000   226.79006      125462.39     -46253.985     -51791.249      50.061576      0.97666302   
   1879000   223.82753      125586.53     -46515.599     -51980.531      50.078082      0.97569759   
   1880000   224.87363      125502.55     -46349.237     -51839.71       50.066917      0.97635044   
   1881000   224.0681       125202.71     -46443.638     -51914.443      50.027013      0.97868868   
   1882000   224.57849      125221.4      -46383.829     -51867.096      50.029502      0.9785426    
   1883000   223.72433      125471.61     -46492.558     -51954.97       50.062802      0.97659124   
   1884000   220.9199       125468.78     -46481.58      -51875.519      50.062426      0.97661325   
   1885000   226.36722      125965.31     -46435.398     -51962.338      50.128378      0.97276366   
   1886000   225.01702      126218.8      -46482.373     -51976.347      50.161981      0.97081003   
   1887000   228.61119      125784.12     -46388.543     -51970.272      50.104331      0.9741649    
   1888000   225.5056       126352.93     -46544.081     -52049.984      50.179744      0.9697794    
   1889000   222.75722      125646.9      -46474.237     -51913.036      50.086105      0.97522877   
   1890000   228.9733       125844.44     -46353.89      -51944.46       50.11234       0.97369793   
   1891000   225.58263      125644.52     -46428.519     -51936.303      50.085788      0.97524728   
   1892000   224.75982      125308.96     -46535.383     -52023.077      50.041161      0.97785879   
   1893000   224.97239      125687.36     -46397.479     -51890.364      50.091481      0.9749148    
   1894000   227.93661      125450.69     -46375.358     -51940.616      50.06002       0.97675409   
   1895000   224.23311      125804.05     -46547.054     -52021.888      50.106977      0.97401059   
   1896000   219.84909      125513.11     -46444.632     -51812.426      50.068321      0.97626833   
   1897000   226.2947       125504.48     -46421.029     -51946.198      50.067173      0.97633546   
   1898000   221.95817      125868        -46432.132     -51851.421      50.115467      0.97351568   
   1899000   227.45415      125776.69     -46227.373     -51780.851      50.103344      0.97422245   
   1900000   223.47189      125589.07     -46629.211     -52085.459      50.07842       0.97567782   
   1901000   226.62134      125392.21     -46421.515     -51954.659      50.052241      0.97720957   
   1902000   226.89107      126110.85     -46270.391     -51810.122      50.147677      0.97164099   
   1903000   224.09942      125915.54     -46440.434     -51912.004      50.121776      0.97314809   
   1904000   227.07612      125859.2      -46449.446     -51993.694      50.114298      0.97358376   
   1905000   223.834        125843.02     -46398.87      -51863.959      50.112151      0.97370895   
   1906000   228.89239      126109.97     -46387.106     -51975.7        50.14756       0.97164778   
   1907000   221.25326      125856.99     -46390.791     -51792.87       50.114006      0.97360083   
   1908000   224.70511      125271.66     -46421.637     -51907.995      50.036195      0.97814998   
   1909000   221.53964      125498.59     -46587.694     -51996.765      50.06639       0.97638128   
   1910000   225.9485       126023.77     -46424.628     -51941.345      50.136131      0.97231242   
   1911000   226.82681      126197.86     -46261.149     -51799.311      50.159207      0.97097109   
   1912000   224.9444       125886.71     -46374.568     -51866.769      50.117949      0.97337101   
   1913000   224.70849      125625.3      -46437.544     -51923.985      50.083235      0.97539645   
   1914000   227.25894      125970.61     -46427.947     -51976.659      50.129081      0.97272272   
   1915000   227.12005      126021.8      -46440.594     -51985.916      50.13587       0.97232761   
   1916000   225.4007       125745.16     -46378.975     -51882.316      50.099158      0.97446671   
   1917000   222.90976      125962.37     -46508.867     -51951.391      50.127988      0.97278637   
   1918000   223.1891       125799.97     -46504.825     -51954.168      50.106436      0.97404213   
   1919000   223.41249      126576.01     -46467.174     -51921.972      50.209258      0.96807028   
   1920000   227.23024      126001.47     -46380.616     -51928.627      50.133174      0.97248447   
   1921000   226.27619      126443.85     -46434.581     -51959.299      50.191776      0.96908214   
   1922000   227.15499      126368.22     -46413.212     -51959.386      50.181768      0.9696621    
   1923000   225.06148      126036.05     -46377.582     -51872.641      50.137759      0.97221769   
   1924000   225.61453      125885.34     -46467.353     -51975.916      50.117768      0.97338155   
   1925000   226.61105      126280.88     -46307.14      -51840.033      50.170204      0.97033273   
   1926000   222.51683      125641.89     -46446.48      -51879.41       50.085439      0.97526765   
   1927000   224.3186       125988.06     -46461.594     -51938.516      50.131396      0.97258799   
   1928000   227.86128      125793.3      -46318.636     -51882.055      50.10555       0.97409379   
   1929000   224.24438      125627.14     -46412.223     -51887.333      50.083479      0.97538219   
   1930000   223.01109      126182.6      -46551.876     -51996.873      50.157186      0.97108848   
   1931000   221.51082      125732.4      -46432.826     -51841.193      50.097463      0.97456562   
   1932000   223.80848      125935.67     -46547.056     -52011.523      50.124446      0.97299256   
   1933000   223.91056      125875.68     -46512.636     -51979.595      50.116486      0.97345627   
   1934000   229.47905      125860.35     -46348.165     -51951.083      50.114451      0.97357485   
   1935000   225.70947      125723.09     -46503.264     -52014.144      50.096226      0.97463778   
   1936000   225.09457      125778.3      -46467.399     -51963.266      50.103559      0.97420995   
   1937000   227.39636      126120.02     -46268.558     -51820.626      50.148892      0.97157038   
   1938000   224.33         126051.55     -46478.076     -51955.276      50.139815      0.9720981    
   1939000   224.67431      125709.95     -46307.514     -51793.12       50.094481      0.97473968   
   1940000   224.87568      125671.38     -46470.894     -51961.417      50.089358      0.97503879   
   1941000   226.625        125726.68     -46366.386     -51899.62       50.096704      0.97460992   
   1942000   222.30695      125057.53     -46566.879     -51994.685      50.007669      0.97982484   
   1943000   223.28789      125489.63     -46363.841     -51815.597      50.065199      0.97645098   
   1944000   223.96649      125409.31     -46552.591     -52020.915      50.054515      0.97707636   
   1945000   224.01352      126166.97     -46396.531     -51866.004      50.155114      0.9712088    
   1946000   223.73711      125781.51     -46386.742     -51849.466      50.103985      0.97418507   
   1947000   222.05662      125614.73     -46530.983     -51952.676      50.08183       0.97547855   
   1948000   226.60656      125464.85     -46409.124     -51941.908      50.061904      0.97664381   
   1949000   226.98542      125410.87     -46385.988     -51928.023      50.054723      0.9770642    
   1950000   221.96974      125895.96     -46505.874     -51925.446      50.119177      0.9732995    
   1951000   227.82866      125476.24     -46329.078     -51891.701      50.063418      0.97655522   
   1952000   224.94916      125563.13     -46431.884     -51924.201      50.074972      0.97587936   
   1953000   223.28654      126171.99     -46519.692     -51971.414      50.15578       0.97117016   
   1954000   224.23313      126081.99     -46480.541     -51955.375      50.143852      0.97186337   
   1955000   227.8071       125749.7      -46350.78      -51912.876      50.099761      0.9744315    
   1956000   222.75866      126213.7      -46446.061     -51884.896      50.161305      0.97084925   
   1957000   225.64394      125638.73     -46466.29      -51975.571      50.085019      0.97529221   
   1958000   224.96214      125651.91     -46452.571     -51945.205      50.086771      0.97518986   
   1959000   225.32722      126205.8      -46459.579     -51961.127      50.160259      0.97090998   
   1960000   225.93546      125659.38     -46494.746     -52011.144      50.087763      0.97513191   
   1961000   228.12587      125825.81     -46407.05      -51976.929      50.109866      0.97384211   
   1962000   221.67849      125779.77     -46364.231     -51776.692      50.103754      0.97419856   
   1963000   222.35824      125674.11     -46566.929     -51995.986      50.08972       0.97501766   
   1964000   224.24423      126264.13     -46451.365     -51926.47       50.167986      0.97046143   
   1965000   223.89838      126454.91     -46548.296     -52014.958      50.19324       0.96899738   
   1966000   228.83704      126058.82     -46400.092     -51987.335      50.140779      0.97204205   
   1967000   224.4564       125866.48     -46518.749     -51999.035      50.115265      0.97352741   
   1968000   225.03584      125679.33     -46504.067     -51998.5        50.090414      0.97497714   
   1969000   226.41307      126129.89     -46499.773     -52027.833      50.150201      0.97149431   
   1970000   225.83772      126192.62     -46453.199     -51967.211      50.158513      0.97101137   
   1971000   227.34225      125828.29     -46389.804     -51940.551      50.110196      0.97382288   
   1972000   223.62278      126170.84     -46368.252     -51828.185      50.155627      0.97117903   
   1973000   225.23791      125960.68     -46495.77      -51995.137      50.127764      0.97279938   
   1974000   223.78664      126288.41     -46604.75      -52068.683      50.171201      0.97027489   
   1975000   224.82325      125995.8      -46513.631     -52002.874      50.132423      0.97252819   
   1976000   226.75751      125962.54     -46398.741     -51935.21       50.12801       0.97278504   
   1977000   222.62012      126188.01     -46475.093     -51910.545      50.157902      0.97104688   
   1978000   226.71291      125853.73     -46269.212     -51804.593      50.113573      0.97362606   
   1979000   224.20756      125477.37     -46472.38      -51946.59       50.063569      0.97654636   
   1980000   225.63146      125928.52     -46510.173     -52019.149      50.123497      0.97304785   
   1981000   224.25966      125886.91     -46512.516     -51987.998      50.117976      0.97336944   
   1982000   224.59219      126264.68     -46472.739     -51956.34       50.168058      0.97045726   
   1983000   222.34072      126111.32     -46395.942     -51824.572      50.147739      0.97163736   
   1984000   225.46535      126182.58     -46475.777     -51980.698      50.157182      0.97108867   
   1985000   221.29438      125929.79     -46575.729     -51978.812      50.123666      0.973038     
   1986000   228.45145      126301.94     -46411.836     -51989.664      50.172993      0.97017092   
   1987000   223.58257      125948.2      -46531.649     -51990.6        50.126109      0.97289575   
   1988000   223.37404      126374.62     -46461.188     -51915.047      50.182615      0.96961299   
   1989000   227.41088      126191.55     -46592.275     -52144.697      50.158371      0.97101962   
   1990000   227.68599      126377.94     -46358.186     -51917.325      50.183055      0.9695875    
   1991000   224.51221      126275.2      -46477.141     -51958.79       50.169452      0.97037637   
   1992000   226.29185      125872.1      -46585.557     -52110.657      50.11601       0.97348401   
   1993000   226.16656      126289.5      -46364.952     -51886.993      50.171346      0.97026649   
   1994000   224.97276      126082.33     -46476.569     -51969.463      50.143896      0.97186082   
   1995000   226.62271      125896.3      -46471.692     -52004.87       50.119222      0.97329689   
   1996000   224.94881      125929.05     -46349.118     -51841.427      50.123567      0.97304375   
   1997000   226.03745      126373.71     -46419.916     -51938.804      50.182495      0.96961994   
   1998000   225.78181      126023.59     -46457.447     -51970.094      50.136108      0.97231377   
   1999000   227.03211      126330.47     -46523.96      -52067.134      50.17677       0.96995187   
   2000000   225.95277      126624.73     -46299.143     -51815.964      50.215699      0.9676978    
Loop time of 9944.32 on 56 procs for 2000000 steps with 12288 atoms

Performance: 17.377 ns/day, 1.381 hours/ns, 201.120 timesteps/s, 2.471 Matom-step/s
99.8% CPU use with 56 MPI tasks x no OpenMP threads

MPI task timing breakdown:
Section |  min time  |  avg time  |  max time  |%varavg| %total
---------------------------------------------------------------
Pair    | 5017.7     | 5337       | 5595.4     | 162.8 | 53.67
Bond    | 0.50137    | 0.67857    | 0.90589    |  11.5 |  0.01
Kspace  | 2345.8     | 2604.4     | 2926       | 235.2 | 26.19
Neigh   | 340.61     | 340.74     | 340.85     |   0.3 |  3.43
Comm    | 287.94     | 293.12     | 296.53     |  12.2 |  2.95
Output  | 6.863      | 12.577     | 17.475     |  79.2 |  0.13
Modify  | 997.07     | 1109       | 1310.7     | 204.7 | 11.15
Other   |            | 246.8      |            |       |  2.48

Nlocal:        219.429 ave         236 max         202 min
Histogram: 3 1 7 6 12 8 5 5 4 5
Nghost:        6729.77 ave        6793 max        6668 min
Histogram: 1 8 5 5 12 5 7 7 2 4
Neighs:        93664.3 ave      101086 max       85654 min
Histogram: 3 3 6 6 12 7 3 6 5 5

Total # of neighbors = 5245201
Ave neighs/atom = 426.85555
Ave special neighs/atom = 2
Neighbor list builds = 28065
Dangerous builds = 0
undump dH2O
Total wall time: 2:45:44
