LAMMPS (22 Jul 2025 - Update 1)
units real
atom_style full
boundary p p p

# package intel 1 omp 2

pair_style lj/cut/tip4p/long 1 2 1 1 0.1546 9.5

bond_style zero
angle_style zero
pair_modify tail yes

read_data 4096_equilibrated_${T}.data
read_data 4096_equilibrated_246.data
Reading data file ...
  triclinic box = (0 0 0) to (49.79052 49.79052 49.79052) with tilt (0 0 0)
  2 by 4 by 7 MPI processor grid
  reading atoms ...
  12288 atoms
  reading velocities ...
  12288 velocities
  scanning bonds ...
  2 = max bonds/atom
  scanning angles ...
  1 = max angles/atom
  triclinic box = (0 0 0) to (49.79052 49.79052 49.79052) with tilt (0 0 0)
  2 by 4 by 7 MPI processor grid
  reading bonds ...
  8192 bonds
  reading angles ...
  4096 angles
Finding 1-2 1-3 1-4 neighbors ...
  special bond factors lj:    0        0        0       
  special bond factors coul:  0        0        0       
     2 = max # of 1-2 neighbors
     1 = max # of 1-3 neighbors
     1 = max # of 1-4 neighbors
     2 = max # of special neighbors
  special bonds CPU = 0.005 seconds
  read_data CPU = 0.127 seconds
# read_data equilibration_NVT_${T}.data
# replicate 2 2 2

print "Initial configuration loaded."
Initial configuration loaded.
reset_timestep 0
print "Applying shear rate: ${gamma}"
Applying shear rate: 5e-6
change_box all triclinic
Changing box ...
  triclinic box = (0 0 0) to (49.79052 49.79052 49.79052) with tilt (0 0 0)
kspace_style pppm/tip4p 1.0e-5

pair_coeff 1 1 0.18521 3.1589 #O-O
pair_coeff * 2 0.0 0.0

bond_coeff 1 0.9572 #O-H
angle_coeff 1 104.52 #H-O-H

group gH2O type 1 2
12288 atoms in group gH2O
group gO type 1
4096 atoms in group gO

neighbor 3.0 bin
neigh_modify delay 0 every 1 check yes

timestep 1.0
fix 1 gH2O shake 1.0e-4 100 0 b 1 a 1
Finding SHAKE clusters ...
       0 = # of size 2 clusters
       0 = # of size 3 clusters
       0 = # of size 4 clusters
    4096 = # of frozen angles
  find clusters CPU = 0.004 seconds

# # 系统弛豫到平衡态
# fix fnvt_equil all nvt temp ${T} ${T} 100.0
# thermo 1000
# thermo_style custom step temp etotal pe
# thermo_modify flush yes
# run 500000 # 500 ps
# unfix fnvt_equil
# write_data 4096_equilibrated_${T}.data

# 系统剪切变形

fix fdeform all deform 1 xy erate ${gamma} remap v
fix fdeform all deform 1 xy erate 5e-6 remap v
fix fnvt all nvt/sllod temp ${T} ${T} 100.0
fix fnvt all nvt/sllod temp 246 ${T} 100.0
fix fnvt all nvt/sllod temp 246 246 100.0

compute tilt all temp/deform

variable L0_x equal lx
variable L0_y equal ly
variable L0_z equal lz

compute p all pressure NULL virial
variable sxy equal -c_p[4] * 1.01325e-4  # convert to GPa


variable strainInc equal 0.01
variable dt equal 1.0e-15
variable gammaSI equal ${gamma}*1e15
variable gammaSI equal 5e-6*1e15
variable stepsPerReset equal ceil(${strainInc}/(${gammaSI}*${dt}))
variable stepsPerReset equal ceil(0.01/(${gammaSI}*${dt}))
variable stepsPerReset equal ceil(0.01/(5000000000*${dt}))
variable stepsPerReset equal ceil(0.01/(5000000000*1e-15))
print "Steps per reset: ${stepsPerReset}"
Steps per reset: 2000

variable massAll equal mass(all)/6.022e23
variable volCm3 equal vol*1.0e-24
variable density_sys equal v_massAll/v_volCm3
variable tau_pa equal v_sxy * 1e9
variable gamma_s equal ${gamma} * 1e15
variable gamma_s equal 5e-6 * 1e15
variable viscosity equal v_tau_pa / v_gamma_s

variable strain equal step*${gammaSI}*${dt}
variable strain equal step*5000000000*${dt}
variable strain equal step*5000000000*1e-15

thermo 1000
thermo_style custom step temp etotal pe pxy v_sxy v_strain v_viscosity
thermo_modify flush yes

dump traj all custom 500 traj_${gamma}_${T}.lammpstrj id type xu yu zu vx vy vz # 0.5ps
dump traj all custom 500 traj_5e-6_${T}.lammpstrj id type xu yu zu vx vy vz 
dump traj all custom 500 traj_5e-6_246.lammpstrj id type xu yu zu vx vy vz 
dump_modify traj sort id
fix stress all ave/time 500 1 500 v_strain v_sxy file stress_${gamma}_${T}.data  # 每0.5ps输出一次应力和应变
fix stress all ave/time 500 1 500 v_strain v_sxy file stress_5e-6_${T}.data  
fix stress all ave/time 500 1 500 v_strain v_sxy file stress_5e-6_246.data  

# compute peratom all stress/atom NULL
# dump stress gO custom 5000 stress_${gamma}_${T}.lammpstrj id type c_peratom[1] c_peratom[2] c_peratom[3] c_peratom[4] c_peratom[5] c_peratom[6]
# dump_modify stress sort id

variable Ttotal equal 2000000 # 2.0 ns
variable nloops equal ceil(${Ttotal}/(100000))
variable nloops equal ceil(2000000/(100000))
print "Total loops: ${nloops}"
Total loops: 20

variable nloop loop ${nloops}
variable nloop loop 20
label loop_start
run 100000 # 100ps
PPPM initialization ...
  extracting TIP4P info from pair style
  using 12-bit tables for long-range coulomb
  G vector (1/distance) = 0.32815664
  grid = 50 50 50
  stencil order = 5
  estimated absolute RMS force accuracy = 0.0035802102
  estimated relative force accuracy = 1.0781697e-05
  using double precision KISS FFT
  3d grid and FFT values/proc = 11424 2800
WARNING: Communication cutoff 0 is shorter than a bond length based estimate of 4.4358. This may lead to errors. (../comm.cpp:743)
WARNING: Increasing communication cutoff to 13.6118 for TIP4P pair style (../pair_lj_cut_tip4p_long.cpp:497)
Generated 0 of 1 mixed pair_coeff terms from geometric mixing rule
Neighbor list info ...
  update: every = 1 steps, delay = 0 steps, check = yes
  max neighbors/atom: 2000, page size: 100000
  master list distance cutoff = 12.8092
  ghost atom cutoff = 13.6118
  binsize = 6.4046, bins = 8 8 8
  1 neighbor lists, perpetual/occasional/extra = 1 0 0
  (1) pair lj/cut/tip4p/long, perpetual
      attributes: half, newton on
      pair build: half/bin/newton/tri
      stencil: half/bin/3d/tri
      bin: standard
Per MPI rank memory allocation (min/avg/max) = 9.2 | 9.373 | 9.718 Mbytes
   Step          Temp          TotEng         PotEng          Pxy           v_sxy         v_strain     v_viscosity  
         0   245.46957     -44327.561     -50320.901      139.5099      -0.016153381    0             -0.0032306763 
      1000   245.11082     -44270.589     -50255.169     -157.94009      0.015342866    0.005          0.0030685732 
      2000   247.70943     -44368.613     -50416.641     -127.4461       0.011146672    0.01           0.0022293344 
      3000   247.20524     -44313.219     -50348.936     -22.707933      0.0058792197   0.015          0.0011758439 
      4000   245.24309     -44474.636     -50462.446     -582.87861      0.058634154    0.02           0.011726831  
      5000   246.23572     -44364.713     -50376.759     -129.18987      0.013542454    0.025          0.0027084907 
      6000   247.09412     -44389.128     -50422.132     -487.5691       0.046358847    0.03           0.0092717693 
      7000   248.78922     -44365.621     -50440.013     -477.06397      0.046315031    0.035          0.0092630062 
      8000   246.14448     -44385.587     -50395.405      44.428629     -0.0041389355   0.04          -0.0008277871 
      9000   245.79064     -44301.785     -50302.964     -157.0476       0.015182472    0.045          0.0030364944 
     10000   244.88999     -44530.734     -50509.923     -257.30416      0.024649216    0.05           0.0049298433 
     11000   245.3803      -44329.752     -50320.912      31.30703      -0.0032260824   0.055         -0.00064521649
     12000   246.78068     -44430.375     -50455.726     -192.62372      0.016357979    0.06           0.0032715958 
     13000   244.84908     -44359.376     -50337.566     -327.00022      0.032402477    0.065          0.0064804953 
     14000   247.58133     -44185.291     -50230.19      -411.99272      0.041159554    0.07           0.0082319109 
     15000   245.02814     -44271.502     -50254.063     -191.17373      0.019823378    0.075          0.0039646756 
     16000   245.86451     -44518.697     -50521.68      -89.563547      0.014265693    0.08           0.0028531386 
     17000   250.71931     -44222.77      -50344.286     -146.51006      0.016578968    0.085          0.0033157937 
     18000   245.55872     -44303.628     -50299.144     -135.53451      0.011847634    0.09           0.0023695268 
     19000   246.61553     -44367.302     -50388.621     -120.58548      0.010757629    0.095          0.0021515258 
     20000   250.09947     -44333.729     -50440.112     -198.1864       0.018155917    0.1            0.0036311835 
     21000   247.59918     -44327.129     -50372.465     -264.05945      0.026177358    0.105          0.0052354716 
     22000   249.16788     -44152.369     -50236.006      117.9214      -0.016686673    0.11          -0.0033373346 
     23000   247.9864      -44192.584     -50247.374      92.318058     -0.00782885     0.115         -0.00156577   
     24000   243.28577     -44488.907     -50428.928     -143.83788      0.014190775    0.12           0.0028381549 
     25000   247.2507      -44333.591     -50370.419     -277.59456      0.031263614    0.125          0.0062527227 
     26000   244.65094     -44326.661     -50300.013     -484.60337      0.048785379    0.13           0.0097570758 
     27000   244.32362     -44552.351     -50517.711      108.64627     -0.0081187157   0.135         -0.0016237431 
     28000   244.68246     -44409.369     -50383.49      -54.987094      0.0019375227   0.14           0.00038750453
     29000   252.64108     -44289.261     -50457.699     -357.69055      0.036094563    0.145          0.0072189125 
     30000   244.43007     -44447.099     -50415.058     -189.16536      0.01788002     0.15           0.0035760039 
     31000   249.81618     -44354.808     -50454.274     -441.94689      0.044781827    0.155          0.0089563653 
     32000   246.46605     -44363.38      -50381.049     -402.40847      0.038088783    0.16           0.0076177565 
     33000   245.78471     -44376.909     -50377.943     -561.89256      0.054632132    0.165          0.010926426  
     34000   245.24759     -44431.522     -50419.441     -224.01541      0.019093848    0.17           0.0038187696 
     35000   243.3295      -44411.535     -50352.623     -238.39642      0.024041938    0.175          0.0048083877 
     36000   246.47646     -44313.514     -50331.438     -335.12097      0.03787573     0.18           0.007575146  
     37000   246.65094     -44299.308     -50321.492     -553.09081      0.052095433    0.185          0.010419087  
     38000   247.20127     -44260.247     -50295.867     -282.88891      0.032127153    0.19           0.0064254306 
     39000   245.61788     -44437.508     -50434.469     -548.97352      0.055906652    0.195          0.01118133   
     40000   246.79761     -44255.25      -50281.014     -105.64482      0.0098878141   0.2            0.0019775628 
     41000   245.19004     -44337.794     -50324.308     -433.30927      0.042698003    0.205          0.0085396006 
     42000   244.14085     -44250.113     -50211.011     -58.52775       0.0071649906   0.21           0.0014329981 
     43000   244.1147      -44486.678     -50446.937     -415.17293      0.043389567    0.215          0.0086779135 
     44000   249.79878     -44224.309     -50323.35      -92.248663      0.0097634295   0.22           0.0019526859 
     45000   247.86837     -44149.359     -50201.268     -38.702128      0.0053562829   0.225          0.0010712566 
     46000   242.26343     -44407.269     -50322.328      30.263675     -0.0084052079   0.23          -0.0016810416 
     47000   246.42392     -44177.712     -50194.353     -239.97598      0.022645074    0.235          0.0045290149 
     48000   243.60222     -44309.332     -50257.079     -155.91416      0.015751157    0.24           0.0031502314 
     49000   248.27253     -44159.816     -50221.592     -396.08478      0.041086345    0.245          0.008217269  
     50000   244.75424     -44205.639     -50181.513     -475.57527      0.04914642     0.25           0.009829284  
     51000   246.54996     -44177.335     -50197.053     -528.98799      0.051927228    0.255          0.010385446  
     52000   248.33778     -44083.544     -50146.914     -75.783112      0.0026504959   0.26           0.00053009918
     53000   243.32187     -44274.156     -50215.058     -292.11854      0.028883146    0.265          0.0057766293 
     54000   244.81373     -44172.28      -50149.606     -336.58201      0.034405252    0.27           0.0068810505 
     55000   246.9499      -44025.999     -50055.482     -64.881981      0.014547922    0.275          0.0029095844 
     56000   244.20241     -44205.843     -50168.244     -356.31243      0.033962657    0.28           0.0067925314 
     57000   246.06493     -44300.206     -50308.082     -416.97212      0.040393285    0.285          0.0080786571 
     58000   247.57144     -44281.023     -50325.681     -243.59529      0.025688852    0.29           0.0051377705 
     59000   242.29754     -44435.402     -50351.294     -131.38368      0.012885287    0.295          0.0025770573 
     60000   244.39548     -44303.117     -50270.232     -394.50696      0.039948971    0.3            0.0079897942 
     61000   248.61935     -44146.413     -50216.657     -82.381616      0.0084998066   0.305          0.0016999613 
     62000   244.46952     -44360.66      -50329.582     -309.87143      0.030587054    0.31           0.0061174109 
     63000   249.24391     -44269.562     -50355.055     -379.012        0.036343065    0.315          0.0072686129 
     64000   245.93316     -44344.541     -50349.2       -171.25671      0.01481968     0.32           0.002963936  
     65000   242.99773     -44511.06      -50444.047     -281.66456      0.028395983    0.325          0.0056791965 
     66000   249.58452     -44171.338     -50265.148     -252.25919      0.021714811    0.33           0.0043429621 
     67000   243.32871     -44508.78      -50449.849     -125.83967      0.015190056    0.335          0.0030380111 
     68000   247.21884     -44375.62      -50411.67      -78.236958      0.0082665827   0.34           0.0016533165 
     69000   247.56447     -44131.512     -50176.001     -571.74033      0.05589861     0.345          0.011179722  
     70000   247.1247      -44223.138     -50256.889     -106.80208      0.010184011    0.35           0.0020368022 
     71000   247.42154     -44282.52      -50323.518     -345.8885       0.035793234    0.355          0.0071586468 
     72000   245.65462     -44237.15      -50235.008     -302.01503      0.027581491    0.36           0.0055162983 
     73000   245.36243     -44407.594     -50398.317     -350.83802      0.032657504    0.365          0.0065315009 
     74000   245.06926     -44301.689     -50285.255     -212.41331      0.020911968    0.37           0.0041823936 
     75000   244.7289      -44224.935     -50200.19      -305.89182      0.028955445    0.375          0.005791089  
     76000   244.18698     -44061.84      -50023.864     -367.85899      0.033573057    0.38           0.0067146114 
     77000   243.5444      -44106.62      -50052.955     -580.42532      0.058088179    0.385          0.011617636  
     78000   247.33217     -44106.954     -50145.771     -562.33077      0.052669385    0.39           0.010533877  
     79000   247.47623     -44144.048     -50186.382     -202.78288      0.01913675     0.395          0.00382735   
     80000   247.49037     -44177.481     -50220.16      -546.31458      0.048427154    0.4            0.0096854308 
     81000   247.97655     -44214.522     -50269.072     -236.46673      0.022090039    0.405          0.0044180077 
     82000   249.90134     -44060.929     -50162.474      110.22932     -0.010888068    0.41          -0.0021776136 
     83000   249.97365     -44174.555     -50277.865     -128.10342      0.014937851    0.415          0.0029875702 
     84000   249.13251     -44071.655     -50154.429     -33.348654      0.005067708    0.42           0.0010135416 
     85000   245.22494     -44281.464     -50268.831     -449.8137       0.046979024    0.425          0.0093958049 
     86000   245.29584     -44248.789     -50237.887     -283.77709      0.023814305    0.43           0.0047628609 
     87000   249.84091     -44123.922     -50223.992     -385.47186      0.038122416    0.435          0.0076244833 
     88000   247.5586      -44219.447     -50263.792      39.417917     -0.0052495906   0.44          -0.0010499181 
     89000   246.47064     -44327.044     -50344.825     -201.01327      0.020694729    0.445          0.0041389458 
     90000   245.54669     -44287.097     -50282.32      -402.92473      0.039853662    0.45           0.0079707323 
     91000   243.99647     -44368.773     -50326.146     -78.653384      0.0073789807   0.455          0.0014757961 
     92000   245.36527     -44237.602     -50228.395     -435.62718      0.041306769    0.46           0.0082613539 
     93000   246.88986     -44193.922     -50221.939     -393.80639      0.036649886    0.465          0.0073299771 
     94000   248.03441     -44143.045     -50199.007     -0.97254942    -0.002196063    0.47          -0.0004392126 
     95000   245.21045     -44077.481     -50064.494     -365.46687      0.034458962    0.475          0.0068917924 
     96000   250.19401     -44151.636     -50260.326     -132.35049      0.012508366    0.48           0.0025016732 
     97000   244.797       -44300.779     -50277.697     -120.58559      0.016038876    0.485          0.0032077752 
     98000   244.45597     -44166.336     -50134.927     -569.01885      0.060212666    0.49           0.012042533  
     99000   245.54372     -44371.006     -50366.156     -504.99879      0.052061302    0.495          0.01041226   
    100000   248.598       -44218.496     -50288.218     -302.01862      0.02789931     0.5            0.0055798621 
Loop time of 424.43 on 56 procs for 100000 steps with 12288 atoms

Performance: 20.357 ns/day, 1.179 hours/ns, 235.610 timesteps/s, 2.895 Matom-step/s
99.7% CPU use with 56 MPI tasks x no OpenMP threads

MPI task timing breakdown:
Section |  min time  |  avg time  |  max time  |%varavg| %total
---------------------------------------------------------------
Pair    | 191.74     | 198.36     | 204.86     |  24.8 | 46.74
Bond    | 0.01608    | 0.026988   | 0.037883   |   2.9 |  0.01
Kspace  | 111.93     | 118.37     | 124.71     |  33.7 | 27.89
Neigh   | 22.409     | 22.416     | 22.423     |   0.1 |  5.28
Comm    | 15.044     | 16.058     | 17.153     |  14.3 |  3.78
Output  | 0.22556    | 0.4011     | 0.57059    |  16.1 |  0.09
Modify  | 51.291     | 56.29      | 65.844     |  45.0 | 13.26
Other   |            | 12.51      |            |       |  2.95

Nlocal:        219.429 ave         244 max         197 min
Histogram: 2 1 6 10 13 13 5 4 1 1
Nghost:        7270.66 ave        7351 max        7207 min
Histogram: 4 2 6 8 13 10 8 3 1 1
Neighs:        96051.4 ave      107738 max       85275 min
Histogram: 2 1 7 6 14 13 7 3 2 1

Total # of neighbors = 5378878
Ave neighs/atom = 437.73421
Ave special neighs/atom = 2
Neighbor list builds = 1914
Dangerous builds = 0
kspace_style pppm/tip4p 1.0e-5
next nloop
jump SELF loop_start
run 100000 # 100ps
PPPM initialization ...
  extracting TIP4P info from pair style
  using 12-bit tables for long-range coulomb
  G vector (1/distance) = 0.32815664
  grid = 50 75 50
  stencil order = 5
  estimated absolute RMS force accuracy = 0.0035802102
  estimated relative force accuracy = 1.0781697e-05
  using double precision KISS FFT
  3d grid and FFT values/proc = 15776 4000
Generated 0 of 1 mixed pair_coeff terms from geometric mixing rule
Per MPI rank memory allocation (min/avg/max) = 11.17 | 11.25 | 11.32 Mbytes
   Step          Temp          TotEng         PotEng          Pxy           v_sxy         v_strain     v_viscosity  
    100000   248.59277     -44218.706     -50288.301     -292.34553      0.026897321    0.5            0.0053794642 
    101000   245.99083     -44306.325     -50312.392     -330.07262      0.033203976    0.505          0.0066407952 
    102000   246.75705     -44055.541     -50080.315     -225.6632       0.023956791    0.51           0.0047913583 
    103000   243.63289     -44315.027     -50263.523     -153.75021      0.013472701    0.515          0.0026945403 
    104000   245.80558     -44224.98      -50226.523     -345.36687      0.036275419    0.52           0.0072550837 
    105000   247.26213     -44171.459     -50208.566     -69.598601      0.0072797756   0.525          0.0014559551 
    106000   247.17602     -44268.069     -50303.073     -7.5264537     -0.0010975418   0.53          -0.00021950836
    107000   248.40527     -44190.176     -50255.194     -49.158859      0.00097336674  0.535          0.00019467335
    108000   242.41095     -44303.324     -50221.985     -357.57241      0.034789149    0.54           0.0069578299 
    109000   246.99117     -44263.203     -50293.694     -217.16081      0.020568921    0.545          0.0041137841 
    110000   248.11895     -44440.748     -50498.775     -64.689546      0.0071653766   0.55           0.0014330753 
    111000   246.05612     -44468.948     -50476.609     -290.29854      0.028590688    0.555          0.0057181376 
    112000   244.95129     -44401.222     -50381.907     -38.477613      0.0041816707   0.56           0.00083633414
    113000   244.67997     -44284.656     -50258.717     -349.36114      0.037182634    0.565          0.0074365267 
    114000   247.44981     -44221.752     -50263.44      -315.377        0.032826286    0.57           0.0065652573 
    115000   240.90758     -44358.621     -50240.576      170.46207     -0.014184965    0.575         -0.002836993  
    116000   248.01692     -44183.316     -50238.852     -41.734999      0.0050775689   0.58           0.0010155138 
    117000   243.9311      -44435.638     -50391.415     -283.17452      0.030245913    0.585          0.0060491825 
    118000   245.83648     -44385.127     -50387.425     -420.85716      0.039920694    0.59           0.0079841388 
    119000   243.82902     -44264.196     -50217.481     -156.51331      0.017941076    0.595          0.0035882152 
    120000   244.77629     -44308.802     -50285.215     -358.3546       0.034453638    0.6            0.0068907277 
    121000   249.69881     -44223.603     -50320.203     -64.320932      0.0082117058   0.605          0.0016423412 
    122000   246.18859     -44143.291     -50154.186     -342.1257       0.030228961    0.61           0.0060457921 
    123000   245.45549     -44279.482     -50272.478     -355.74823      0.036512683    0.615          0.0073025367 
    124000   244.54922     -44221.561     -50192.429     -386.9555       0.037180534    0.62           0.0074361067 
    125000   246.57686     -44268.449     -50288.824     -350.96668      0.035261524    0.625          0.0070523047 
    126000   247.355       -44237.69      -50277.064     -402.9993       0.037796589    0.63           0.0075593179 
    127000   246.55404     -44276.457     -50296.275     -98.599777      0.008447697    0.635          0.0016895394 
    128000   247.63233     -44048.631     -50094.776      101.27733     -0.0076895247   0.64          -0.0015379049 
    129000   243.68145     -44172.246     -50121.928     -259.82033      0.027066296    0.645          0.0054132593 
    130000   244.43474     -44277.05      -50245.124     -276.7503       0.029066922    0.65           0.0058133844 
    131000   243.5334      -44191.659     -50137.725     -81.331851      0.0063550796   0.655          0.0012710159 
    132000   247.02571     -44130.553     -50161.887     -205.4659       0.01769941     0.66           0.003539882  
    133000   245.92842     -44268.823     -50273.366     -288.35323      0.028660688    0.665          0.0057321377 
    134000   246.82708     -44188.879     -50215.363     -393.72792      0.039209731    0.67           0.0078419463 
    135000   243.35257     -44298.537     -50240.189     -288.7287       0.02896728     0.675          0.005793456  
    136000   246.64515     -44183.533     -50205.576     -109.39795      0.011829281    0.68           0.0023658562 
    137000   245.43638     -44272.904     -50265.433     -302.8998       0.030084347    0.685          0.0060168694 
    138000   248.52838     -44198.004     -50266.027     -7.0040043      0.0024305884   0.69           0.00048611769
    139000   243.8315      -44358.868     -50312.213      7.5860718     -0.0050886131   0.695         -0.0010177226 
    140000   252.68613     -44118.341     -50287.879     -503.87206      0.049494358    0.7            0.0098988716 
    141000   241.51995     -44507.024     -50403.93      -362.05666      0.03603606     0.705          0.0072072121 
    142000   248.11891     -44246.346     -50304.371     -493.01128      0.047005991    0.71           0.0094011983 
    143000   245.93514     -44292.505     -50297.212     -260.07711      0.025068606    0.715          0.0050137211 
    144000   247.45848     -44321.365     -50363.265     -171.14701      0.016777408    0.72           0.0033554816 
    145000   243.08591     -44423.492     -50358.633     -287.82412      0.031667143    0.725          0.0063334287 
    146000   248.58853     -44317.059     -50386.55      -372.15705      0.041205274    0.73           0.0082410547 
    147000   244.31058     -44380.497     -50345.539     -16.795566      0.0062796194   0.735          0.0012559239 
    148000   244.46536     -44317.739     -50286.56      -187.93319      0.022485876    0.74           0.0044971752 
    149000   242.08346     -44339.666     -50250.331     -192.61772      0.01773553     0.745          0.003547106  
    150000   248.4645      -44205.615     -50272.078      43.80918      -0.0016873217   0.75          -0.00033746434
    151000   248.65089     -44278.571     -50349.585     -337.86897      0.032051653    0.755          0.0064103306 
    152000   241.3766      -44352.762     -50246.168     -109.63888      0.012399749    0.76           0.0024799497 
    153000   244.81274     -44353.342     -50330.645      30.376484     -0.0013668775   0.765         -0.00027337551
    154000   249.49814     -44204.763     -50296.464     -204.95676      0.022213747    0.77           0.0044427495 
    155000   251.292       -44160.903     -50296.402     -320.28722      0.032337094    0.775          0.0064674188 
    156000   242.15637     -44310.874     -50223.319     -131.8646       0.014612311    0.78           0.0029224622 
    157000   245.83716     -44117.367     -50119.682     -483.80158      0.048564981    0.785          0.0097129962 
    158000   244.73704     -44271.174     -50246.628     -204.64336      0.021535162    0.79           0.0043070324 
    159000   243.53182     -44216.496     -50162.524     -453.79055      0.045968643    0.795          0.0091937286 
    160000   247.77933     -44197.621     -50247.355     -344.28452      0.034178601    0.8            0.0068357203 
    161000   246.30634     -44297.824     -50311.594     -38.503945      0.0041285813   0.805          0.00082571626
    162000   246.25361     -44165.693     -50178.175     -481.47235      0.04318453     0.81           0.008636906  
    163000   245.76016     -44253.045     -50253.48      -182.04903      0.018314874    0.815          0.0036629749 
    164000   244.25596     -44459.743     -50423.451     -402.80848      0.039109421    0.82           0.0078218842 
    165000   250.31101     -44099.242     -50210.789     -134.54163      0.011204444    0.825          0.0022408887 
    166000   244.25981     -44354.819     -50318.621     -126.78569      0.0085375727   0.83           0.0017075145 
    167000   250.91824     -44120.616     -50246.989     -357.00689      0.033364852    0.835          0.0066729705 
    168000   243.36282     -44380.334     -50322.236     -394.17448      0.037511162    0.84           0.0075022323 
    169000   250.13576     -44225.188     -50332.456     -266.14066      0.0253516      0.845          0.0050703201 
    170000   246.9701      -44195.216     -50225.192     -270.96458      0.027233335    0.85           0.0054466669 
    171000   247.01702     -44326.413     -50357.535     -294.28736      0.028365461    0.855          0.0056730921 
    172000   248.30626     -44227.568     -50290.168     -16.849185     -5.5483232e-05  0.86          -1.1096646e-05
    173000   240.54065     -44332.019     -50205.016     -446.45695      0.044513821    0.865          0.0089027643 
    174000   241.68031     -44369.444     -50270.266     -102.66989      0.012207125    0.87           0.0024414251 
    175000   248.94432     -44132.879     -50211.057     -230.88158      0.023266748    0.875          0.0046533495 
    176000   245.46061     -44344.012     -50337.133      55.436579     -0.0040518876   0.88          -0.00081037753
    177000   249.91396     -44252.768     -50354.621     -42.138807      0.0034180822   0.885          0.00068361643
    178000   240.9377      -44283.389     -50166.08      -76.093075      0.0074629887   0.89           0.0014925977 
    179000   245.51693     -44355.036     -50349.532     -281.66062      0.025509384    0.895          0.0051018767 
    180000   244.8192      -44309.383     -50286.843     -197.87478      0.016747511    0.9            0.0033495022 
    181000   249.75376     -44184.772     -50282.714     -98.860174      0.0041674664   0.905          0.00083349328
    182000   244.66016     -44267.818     -50241.396     -280.48939      0.030926661    0.91           0.0061853322 
    183000   244.74857     -44421.686     -50397.422     -39.03373       0.0059634015   0.915          0.0011926803 
    184000   247.49688     -44312.456     -50355.294     -221.54315      0.022257065    0.92           0.004451413  
    185000   243.58973     -44425.703     -50373.144     -15.761922      0.00074082056  0.925          0.00014816411
    186000   246.8894      -44323.144     -50351.15       44.348939     -0.0040477951   0.93          -0.00080955902
    187000   247.14555     -44217.098     -50251.359     -165.77239      0.018008603    0.935          0.0036017206 
    188000   245.54697     -44418.7       -50413.929     -52.993581      0.0039665573   0.94           0.00079331147
    189000   248.29279     -44213.33      -50275.601     -97.483382      0.0082802736   0.945          0.0016560547 
    190000   244.63911     -44286.347     -50259.41      -283.79933      0.024600121    0.95           0.0049200241 
    191000   246.58523     -44189.115     -50209.695     -359.4111       0.034582633    0.955          0.0069165265 
    192000   247.45208     -44281.574     -50323.319     -210.1195       0.017634553    0.96           0.0035269107 
    193000   243.52097     -44547.994     -50493.757     -526.96525      0.050829833    0.965          0.010165967  
    194000   248.5145      -44225.398     -50293.082     -395.06708      0.033379585    0.97           0.006675917  
    195000   241.37258     -44485.287     -50378.596     -234.79914      0.023431792    0.975          0.0046863584 
    196000   248.10091     -44249.273     -50306.859     -450.92493      0.049767984    0.98           0.0099535968 
    197000   245.13251     -44430.845     -50415.955     -463.27957      0.048003822    0.985          0.0096007644 
    198000   247.56152     -44192.342     -50236.758     -257.14126      0.026977275    0.99           0.005395455  
    199000   243.49883     -44318.152     -50263.374     -438.63398      0.043032721    0.995          0.0086065442 
    200000   247.05981     -44125.238     -50157.405     -387.42451      0.036474002    1              0.0072948004 
Loop time of 495.709 on 56 procs for 100000 steps with 12288 atoms

Performance: 17.430 ns/day, 1.377 hours/ns, 201.731 timesteps/s, 2.479 Matom-step/s
99.8% CPU use with 56 MPI tasks x no OpenMP threads

MPI task timing breakdown:
Section |  min time  |  avg time  |  max time  |%varavg| %total
---------------------------------------------------------------
Pair    | 188.9      | 200.1      | 208.47     |  29.2 | 40.37
Bond    | 0.018667   | 0.031204   | 0.042747   |   3.1 |  0.01
Kspace  | 150.36     | 159.61     | 171.81     |  33.7 | 32.20
Neigh   | 22.534     | 22.545     | 22.556     |   0.1 |  4.55
Comm    | 15.858     | 17.831     | 19.343     |  21.3 |  3.60
Output  | 0.22036    | 0.39621    | 0.56545    |  16.2 |  0.08
Modify  | 73.081     | 79.86      | 92.637     |  52.6 | 16.11
Other   |            | 15.33      |            |       |  3.09

Nlocal:        219.429 ave         246 max         202 min
Histogram: 4 6 11 10 6 9 4 5 0 1
Nghost:        6856.54 ave        6918 max        6791 min
Histogram: 5 3 4 5 7 11 7 6 4 4
Neighs:        96085.6 ave      110185 max       87968 min
Histogram: 6 7 10 10 5 10 4 3 0 1

Total # of neighbors = 5380792
Ave neighs/atom = 437.88997
Ave special neighs/atom = 2
Neighbor list builds = 1935
Dangerous builds = 0
kspace_style pppm/tip4p 1.0e-5
next nloop
jump SELF loop_start
run 100000 # 100ps
PPPM initialization ...
  extracting TIP4P info from pair style
  using 12-bit tables for long-range coulomb
  G vector (1/distance) = 0.32815664
  grid = 50 50 50
  stencil order = 5
  estimated absolute RMS force accuracy = 0.0035802102
  estimated relative force accuracy = 1.0781697e-05
  using double precision KISS FFT
  3d grid and FFT values/proc = 11424 2800
Generated 0 of 1 mixed pair_coeff terms from geometric mixing rule
Per MPI rank memory allocation (min/avg/max) = 10.91 | 11.02 | 11.09 Mbytes
   Step          Temp          TotEng         PotEng          Pxy           v_sxy         v_strain     v_viscosity  
    200000   247.06012     -44125.225     -50157.399     -375.90375      0.035304119    1              0.0070608238 
    201000   243.91457     -44478.74      -50434.113     -104.27715      0.008241089    1.005          0.0016482178 
    202000   246.0942      -44338.777     -50347.368     -330.23845      0.031548264    1.01           0.0063096527 
    203000   247.04133     -44283.061     -50314.776     -363.98218      0.03143961     1.015          0.0062879219 
    204000   246.22309     -44469.146     -50480.883     -563.38594      0.056220041    1.02           0.011244008  
    205000   246.4353      -44294.164     -50311.082     -192.41619      0.019210078    1.025          0.0038420156 
    206000   244.15024     -44499.82      -50460.948     -411.64358      0.042195536    1.03           0.0084391071 
    207000   249.01488     -44309.707     -50389.608     -390.54322      0.041077731    1.035          0.0082155462 
    208000   244.88494     -44357.28      -50336.345     -150.37224      0.016150646    1.04           0.0032301292 
    209000   247.44105     -44359.518     -50400.993     -389.79644      0.03560146     1.045          0.0071202919 
    210000   251.31926     -44181.034     -50317.198     -273.15667      0.027668225    1.05           0.005533645  
    211000   245.11706     -44398.647     -50383.38      -332.31417      0.030116289    1.055          0.0060232577 
    212000   249.06417     -44110.222     -50191.327     -210.71456      0.02082974     1.06           0.0041659479 
    213000   246.84462     -44227.101     -50254.013     -549.53862      0.056890732    1.065          0.011378146  
    214000   244.31171     -44415.698     -50380.768     -563.12226      0.056040933    1.07           0.011208187  
    215000   246.35986     -44191.25      -50206.327     -202.61632      0.017802672    1.075          0.0035605343 
    216000   248.66012     -44324.805     -50396.045     -170.17212      0.019155035    1.08           0.0038310071 
    217000   246.33291     -44421.086     -50435.505      108.28097     -0.0081599949   1.085         -0.001631999  
    218000   249.59853     -44135.866     -50230.017     -132.48596      0.0097080444   1.09           0.0019416089 
    219000   245.50886     -44446.849     -50441.148     -310.13988      0.028983751    1.095          0.0057967503 
    220000   250.87039     -44133.496     -50258.701     -454.39261      0.045336967    1.1            0.0090673934 
    221000   245.89556     -44352.245     -50355.986     -288.39651      0.028306847    1.105          0.0056613693 
    222000   249.72377     -44306.258     -50403.467     -448.23781      0.046720131    1.11           0.0093440263 
    223000   243.69867     -44413.02      -50363.122     -417.13785      0.040733009    1.115          0.0081466018 
    224000   246.83415     -44323.13      -50349.787     -333.82355      0.033401145    1.12           0.0066802291 
    225000   242.54858     -44331.901     -50253.922     -366.13472      0.037170454    1.125          0.0074340907 
    226000   249.15792     -44271.003     -50354.397     -128.84838      0.016904167    1.13           0.0033808335 
    227000   248.23211     -44330.663     -50391.452     -545.12028      0.055091944    1.135          0.011018389  
    228000   245.94544     -44263.437     -50268.396     -190.30171      0.017695414    1.14           0.0035390827 
    229000   242.86207     -44403.056     -50332.732      47.314493     -0.0039712083   1.145         -0.00079424166
    230000   248.75728     -44226.557     -50300.168     -213.55679      0.022066024    1.15           0.0044132049 
    231000   246.34421     -44260.595     -50275.29      -356.98808      0.034404473    1.155          0.0068808947 
    232000   249.28348     -44167.503     -50253.963     -435.01163      0.042198363    1.16           0.0084396727 
    233000   245.34803     -44297.374     -50287.746     -648.06764      0.063409641    1.165          0.012681928  
    234000   248.19316     -44284.308     -50344.146     -279.92032      0.028987775    1.17           0.0057975549 
    235000   244.69152     -44256.327     -50230.67      -389.62376      0.037279705    1.175          0.0074559411 
    236000   245.42662     -44270.616     -50262.906     -311.51874      0.03304416     1.18           0.006608832  
    237000   247.1042      -44220.615     -50253.865     -271.00345      0.030537374    1.185          0.0061074748 
    238000   248.58782     -44172.328     -50241.802     -201.09645      0.021397862    1.19           0.0042795725 
    239000   245.37168     -44178.198     -50169.147     -125.98152      0.014166701    1.195          0.0028333402 
    240000   244.78152     -44191.583     -50168.123      8.766989       0.0019377821   1.2            0.00038755643
    241000   243.60536     -44404.14      -50351.964     -131.69784      0.010515565    1.205          0.002103113  
    242000   249.35401     -44213.392     -50301.574     -219.59367      0.020953985    1.21           0.0041907971 
    243000   246.17328     -44200.478     -50210.999     -100.80734      0.0076966313   1.215          0.0015393263 
    244000   242.85221     -44329.678     -50259.113     -393.17059      0.03615247     1.22           0.007230494  
    245000   243.41315     -44123.129     -50066.259     -173.51376      0.016817876    1.225          0.0033635752 
    246000   247.14847     -44094.652     -50128.983     -462.80904      0.045946573    1.23           0.0091893145 
    247000   248.78948     -44184.063     -50258.461     -162.87785      0.012467873    1.235          0.0024935745 
    248000   248.32533     -44181.422     -50244.488     -663.87417      0.068558199    1.24           0.01371164   
    249000   245.45719     -44362.184     -50355.222     -326.97829      0.029864369    1.245          0.0059728738 
    250000   247.23463     -44285.605     -50322.04      -526.97145      0.048781025    1.25           0.0097562049 
    251000   251.18432     -44205.192     -50338.062     -300.87836      0.031089008    1.255          0.0062178016 
    252000   244.56157     -44388.559     -50359.729     -267.98326      0.023937955    1.26           0.004787591  
    253000   242.83848     -44590.979     -50520.079     -496.13744      0.047971517    1.265          0.0095943034 
    254000   246.65932     -44453.246     -50475.634     -451.14461      0.047641675    1.27           0.0095283351 
    255000   245.71378     -44443.869     -50443.171     -473.02918      0.045604487    1.275          0.0091208975 
    256000   242.78469     -44468.403     -50396.189     -281.72858      0.029108032    1.28           0.0058216065 
    257000   247.37745     -44291.223     -50331.145     -268.51619      0.025982806    1.285          0.0051965612 
    258000   244.31953     -44373.938     -50339.198     -518.53957      0.055049364    1.29           0.011009873  
    259000   244.57873     -44358.478     -50330.067     -258.41176      0.025402444    1.295          0.0050804887 
    260000   240.81414     -44423.371     -50303.045     -180.53595      0.018495233    1.3            0.0036990467 
    261000   245.07533     -44147.791     -50131.505     -482.21573      0.049680307    1.305          0.0099360613 
    262000   246.28792     -44205.803     -50219.124     -470.71953      0.046461022    1.31           0.0092922043 
    263000   246.9508      -44241.611     -50271.116     -354.04342      0.036976284    1.315          0.0073952567 
    264000   247.87164     -44346.435     -50398.423     -334.22864      0.033605794    1.32           0.0067211588 
    265000   248.78623     -44227.865     -50302.183     -385.03702      0.038881895    1.325          0.0077763791 
    266000   244.43379     -44408.181     -50376.231     -260.07755      0.023249967    1.33           0.0046499934 
    267000   247.60538     -44413.808     -50459.295      15.712377     -0.0030944068   1.335         -0.00061888135
    268000   248.93466     -44298.284     -50376.226     -416.43081      0.04172887     1.34           0.008345774  
    269000   248.4525      -44230.954     -50297.125     -410.93242      0.038990537    1.345          0.0077981074 
    270000   248.09489     -44280.958     -50338.397     -265.92168      0.024402364    1.35           0.0048804728 
    271000   245.76476     -44299.575     -50300.122     -232.75218      0.021346848    1.355          0.0042693696 
    272000   243.33094     -44455.295     -50396.418     -295.42917      0.027346131    1.36           0.0054692263 
    273000   248.92172     -44197.929     -50275.556     -382.52599      0.039178935    1.365          0.0078357871 
    274000   244.28383     -44356.04      -50320.429     -173.01674      0.017284556    1.37           0.0034569112 
    275000   250.02039     -44229.327     -50333.779     -427.21918      0.040891467    1.375          0.0081782934 
    276000   244.81367     -44162.963     -50140.288      24.439335     -0.0039738088   1.38          -0.00079476176
    277000   243.89781     -44173.196     -50128.16      -390.10833      0.038227073    1.385          0.0076454147 
    278000   243.11288     -44360.969     -50296.768     -103.99462      0.0095923352   1.39           0.001918467  
    279000   247.6167      -44181.99      -50227.754     -139.99731      0.011265911    1.395          0.0022531822 
    280000   241.17046     -44529.668     -50418.042     -418.38585      0.04024561     1.4            0.008049122  
    281000   245.50043     -44324.808     -50318.902     -46.11929       0.0021967782   1.405          0.00043935563
    282000   244.44211     -44423.542     -50391.795     -364.88142      0.033293256    1.41           0.0066586511 
    283000   241.8456      -44363.301     -50268.158     -373.99377      0.036454762    1.415          0.0072909523 
    284000   248.09622     -44147.77      -50205.241      26.962316     -0.0041319832   1.42          -0.00082639664
    285000   245.31449     -44241.909     -50231.462     -603.96983      0.060461843    1.425          0.012092369  
    286000   246.13934     -44151.297     -50160.989     -191.28959      0.017272082    1.43           0.0034544164 
    287000   247.39653     -44256.163     -50296.551     -364.3071       0.03627425     1.435          0.00725485   
    288000   243.8347      -44224.017     -50177.44      -519.35013      0.047080863    1.44           0.0094161727 
    289000   245.1006      -44010.276     -49994.607     -326.56019      0.029654465    1.445          0.0059308931 
    290000   250.34251     -44113.435     -50225.751      25.333587     -0.0027225633   1.45          -0.00054451266
    291000   245.7502      -44178.335     -50178.526     -248.83734      0.026905753    1.455          0.0053811505 
    292000   245.74467     -44143.799     -50143.855      26.906805     -0.0015593478   1.46          -0.00031186957
    293000   247.14809     -44146.827     -50181.149     -389.88519      0.037421447    1.465          0.0074842895 
    294000   248.19973     -44073.247     -50133.245     -414.26625      0.040380284    1.47           0.0080760568 
    295000   245.61849     -44135.374     -50132.349     -58.104271      0.0034721299   1.475          0.00069442597
    296000   247.27514     -44080.918     -50118.342     -106.44316      0.0089885206   1.48           0.0017977041 
    297000   245.72806     -44163.136     -50162.787     -398.78756      0.041754313    1.485          0.0083508626 
    298000   249.57384     -44144.035     -50237.584     -128.77109      0.014110406    1.49           0.0028220812 
    299000   243.81461     -44149.071     -50102.003      48.449194     -0.0068774581   1.495         -0.0013754916 
    300000   248.417       -44131.302     -50196.606     -199.4466       0.023781685    1.5            0.004756337  
Loop time of 423.469 on 56 procs for 100000 steps with 12288 atoms

Performance: 20.403 ns/day, 1.176 hours/ns, 236.145 timesteps/s, 2.902 Matom-step/s
99.8% CPU use with 56 MPI tasks x no OpenMP threads

MPI task timing breakdown:
Section |  min time  |  avg time  |  max time  |%varavg| %total
---------------------------------------------------------------
Pair    | 187.97     | 197.66     | 206.79     |  30.7 | 46.68
Bond    | 0.014373   | 0.026239   | 0.037198   |   3.0 |  0.01
Kspace  | 110.14     | 118.64     | 127.81     |  38.6 | 28.02
Neigh   | 22.074     | 22.082     | 22.094     |   0.1 |  5.21
Comm    | 14.904     | 15.954     | 17.562     |  16.3 |  3.77
Output  | 0.22004    | 0.39539    | 0.56416    |  16.2 |  0.09
Modify  | 51.129     | 56.142     | 65.855     |  45.5 | 13.26
Other   |            | 12.57      |            |       |  2.97

Nlocal:        219.429 ave         243 max         204 min
Histogram: 2 4 11 12 16 2 6 2 0 1
Nghost:        7280.79 ave        7349 max        7214 min
Histogram: 3 2 6 10 9 9 5 7 2 3
Neighs:          96056 ave      106956 max       87164 min
Histogram: 1 1 10 11 12 10 6 3 1 1

Total # of neighbors = 5379135
Ave neighs/atom = 437.75513
Ave special neighs/atom = 2
Neighbor list builds = 1895
Dangerous builds = 0
kspace_style pppm/tip4p 1.0e-5
next nloop
jump SELF loop_start
run 100000 # 100ps
PPPM initialization ...
  extracting TIP4P info from pair style
  using 12-bit tables for long-range coulomb
  G vector (1/distance) = 0.32815664
  grid = 50 75 50
  stencil order = 5
  estimated absolute RMS force accuracy = 0.0035802102
  estimated relative force accuracy = 1.0781697e-05
  using double precision KISS FFT
  3d grid and FFT values/proc = 15776 4000
Generated 0 of 1 mixed pair_coeff terms from geometric mixing rule
Per MPI rank memory allocation (min/avg/max) = 11.21 | 11.33 | 11.44 Mbytes
   Step          Temp          TotEng         PotEng          Pxy           v_sxy         v_strain     v_viscosity  
    300000   248.4168      -44131.296     -50196.595     -189.43466      0.022759209    1.5            0.0045518417 
    301000   244.25424     -44408.486     -50372.153     -91.311971      0.0034315618   1.505          0.00068631236
    302000   245.89147     -44108.136     -50111.776     -399.91167      0.037949026    1.51           0.0075898053 
    303000   242.67179     -44258.759     -50183.789     -313.7083       0.032804409    1.515          0.0065608818 
    304000   245.98271     -44222.821     -50228.689     -209.03913      0.019097248    1.52           0.0038194496 
    305000   243.21329     -44273.064     -50211.314     -74.662877      0.0065371646   1.525          0.0013074329 
    306000   248.53446     -44212.076     -50280.247     -139.16624      0.016043398    1.53           0.0032086796 
    307000   244.79855     -44348.443     -50325.4       -386.49234      0.036906316    1.535          0.0073812633 
    308000   244.73171     -44322.272     -50297.596     -444.69587      0.041929108    1.54           0.0083858216 
    309000   243.85062     -44460.323     -50414.135     -483.98366      0.047293064    1.545          0.0094586128 
    310000   248.48795     -44188.362     -50255.398     -338.53924      0.03570816     1.55           0.0071416319 
    311000   244.0734      -44483.91      -50443.161     -49.024345      0.0096632901   1.555          0.001932658  
    312000   246.6989      -44212.146     -50235.501     -135.21886      0.010928432    1.56           0.0021856864 
    313000   244.12803     -44514.488     -50475.073     -295.08752      0.025493614    1.565          0.0050987229 
    314000   247.54501     -44375.726     -50419.739     -550.84265      0.054971161    1.57           0.010994232  
    315000   247.14921     -44231.573     -50265.923     -476.17649      0.049757445    1.575          0.0099514891 
    316000   243.05652     -44452.856     -50387.279     -728.93824      0.072594407    1.58           0.014518881  
    317000   244.56129     -44400.233     -50371.396     -301.16955      0.029797935    1.585          0.005959587  
    318000   246.78297     -44298.848     -50324.256     -14.262704      0.0026030076   1.59           0.00052060151
    319000   242.56852     -44249.943     -50172.451     -280.1214       0.025909097    1.595          0.0051818194 
    320000   241.49548     -44514.761     -50411.07      -443.11071      0.043769724    1.6            0.0087539449 
    321000   247.34749     -44248.974     -50288.165     -495.5693       0.051044398    1.605          0.01020888   
    322000   243.03621     -44397.708     -50331.635     -103.73578      0.0078911231   1.61           0.0015782246 
    323000   247.25826     -44333.926     -50370.938     -33.645926      0.0019061068   1.615          0.00038122137
    324000   244.43948     -44277.808     -50245.998     -209.12249      0.024675344    1.62           0.0049350688 
    325000   242.03213     -44390.176     -50299.588     -424.44428      0.041002161    1.625          0.0082004323 
    326000   244.44025     -44327.683     -50295.891     -181.07057      0.014519772    1.63           0.0029039544 
    327000   246.37324     -44283.363     -50298.767     -452.61741      0.042830336    1.635          0.0085660671 
    328000   247.18989     -44387.63      -50422.973     -287.51197      0.026875758    1.64           0.0053751516 
    329000   247.31103     -44187.202     -50225.502     -635.43376      0.063510846    1.645          0.012702169  
    330000   247.67275     -44319.369     -50366.501     -589.80648      0.057527778    1.65           0.011505556  
    331000   244.49283     -44469.864     -50439.355     -456.39396      0.042679854    1.655          0.0085359708 
    332000   249.13999     -44226.053     -50309.009      93.420125     -0.012346127    1.66          -0.0024692254 
    333000   243.50423     -44520.027     -50465.381      81.892932     -0.0060717916   1.665         -0.0012143583 
    334000   247.47256     -44589.021     -50631.266     -523.06403      0.053011358    1.67           0.010602272  
    335000   248.28932     -44407.437     -50469.624     -682.09856      0.066607384    1.675          0.013321477  
    336000   247.9581      -44487.556     -50541.656     -114.12715      0.014794878    1.68           0.0029589755 
    337000   250.04497     -44275.983     -50381.035     -563.9266       0.057196111    1.685          0.011439222  
    338000   241.72574     -44588.252     -50490.183     -95.655062      0.01338564     1.69           0.0026771281 
    339000   246.46438     -44385.774     -50403.403     -144.98262      0.014494903    1.695          0.0028989807 
    340000   245.20237     -44435.429     -50422.245     -110.51254      0.012454118    1.7            0.0024908235 
    341000   245.70294     -44415.453     -50414.49      -423.7875       0.04340296     1.705          0.008680592  
    342000   245.25586     -44383.664     -50371.786     -443.92876      0.047006188    1.71           0.0094012376 
    343000   243.38885     -44245.794     -50188.331     -426.45428      0.043207475    1.715          0.0086414949 
    344000   244.4961      -44241.601     -50211.173     -457.79805      0.044180758    1.72           0.0088361516 
    345000   243.57283     -44235.66      -50182.689     -416.49245      0.046129648    1.725          0.0092259295 
    346000   245.76743     -44106.472     -50107.084     -237.4575       0.02312759     1.73           0.0046255179 
    347000   245.13615     -44373.269     -50358.468     -514.55457      0.049668624    1.735          0.0099337248 
    348000   249.4937      -44083.949     -50175.541     -223.7893       0.025328049    1.74           0.0050656099 
    349000   242.69784     -44269.636     -50195.301     -351.16309      0.037517474    1.745          0.0075034947 
    350000   247.43179     -44285.736     -50326.985     -307.72268      0.031403953    1.75           0.0062807906 
    351000   248.69971     -44189.921     -50262.127     -291.50197      0.029834581    1.755          0.0059669163 
    352000   250.84819     -44210.143     -50334.805     -329.03231      0.030591526    1.76           0.0061183053 
    353000   245.09135     -44326.303     -50310.408     -651.49419      0.066031674    1.765          0.013206335  
    354000   248.61208     -44260.34      -50330.406      133.56849     -0.01674502     1.77          -0.0033490041 
    355000   243.34245     -44372.856     -50314.26      -354.68324      0.032769504    1.775          0.0065539008 
    356000   247.79186     -44258.639     -50308.679     -294.3834       0.029315518    1.78           0.0058631036 
    357000   243.81281     -44316.827     -50269.716     -426.27656      0.048939332    1.785          0.0097878663 
    358000   247.69684     -44272.504     -50320.225     -190.95345      0.01744961     1.79           0.003489922  
    359000   248.94662     -44285.032     -50363.266     -172.07555      0.021280456    1.795          0.0042560912 
    360000   247.76756     -44266.929     -50316.376     -208.06806      0.024808261    1.8            0.0049616523 
    361000   243.72189     -44490.397     -50441.065     -590.75252      0.059960873    1.805          0.011992175  
    362000   242.08544     -44351.528     -50262.242     -192.90962      0.018421596    1.81           0.0036843193 
    363000   248.3034      -44279.923     -50342.453      48.0873       -0.0060256649   1.815         -0.001205133  
    364000   250.51674     -44268.869     -50385.44      -670.86711      0.06999481     1.82           0.013998962  
    365000   244.32336     -44338.94      -50304.294     -203.36613      0.022196313    1.825          0.0044392625 
    366000   244.41671     -44268.251     -50235.884     -500.52923      0.04645722     1.83           0.009291444  
    367000   244.52444     -44344.31      -50314.574     -97.862525      0.0069780178   1.835          0.0013956036 
    368000   244.20855     -44171.694     -50134.245     -250.57033      0.026270463    1.84           0.0052540926 
    369000   244.09669     -44347.531     -50307.35      -388.34818      0.032559953    1.845          0.0065119906 
    370000   243.06119     -44323.695     -50258.232      33.152335     -0.0045206415   1.85          -0.0009041283 
    371000   250.7915      -44227.89      -50351.169     -254.53152      0.023450203    1.855          0.0046900405 
    372000   244.3582      -44161.946     -50128.15      -281.89457      0.026080446    1.86           0.0052160892 
    373000   248.02326     -44222.506     -50278.196     -144.39122      0.016579491    1.865          0.0033158981 
    374000   246.84385     -44235.818     -50262.712     -18.174707      0.0014478562   1.87           0.00028957124
    375000   247.75208     -44227.02      -50276.089      28.759185     -0.0024597165   1.875         -0.00049194331
    376000   246.91757     -44302.959     -50331.653     -141.62808      0.013791239    1.88           0.0027582478 
    377000   244.41289     -44270.504     -50238.044     -57.876206      0.0032779359   1.885          0.00065558718
    378000   246.62526     -44095.819     -50117.376     -172.13982      0.017360701    1.89           0.0034721402 
    379000   242.86666     -44426.047     -50355.835     -281.5008       0.031361766    1.895          0.0062723531 
    380000   244.5081      -44238.241     -50208.106     -481.64725      0.044951795    1.9            0.008990359  
    381000   246.24101     -44182.331     -50194.506     -181.59957      0.017460308    1.905          0.0034920616 
    382000   246.10799     -44223.254     -50232.181     -305.87009      0.031509957    1.91           0.0063019915 
    383000   242.42971     -44284.202     -50203.321     -82.791944      0.0058777883   1.915          0.0011755577 
    384000   246.60183     -44248.213     -50269.198     -209.68345      0.020778656    1.92           0.0041557313 
    385000   249.36901     -44053.068     -50141.615     -43.138683     -0.0018356525   1.925         -0.00036713051
    386000   243.64034     -44365.153     -50313.831     -62.17473       0.0056232711   1.93           0.0011246542 
    387000   246.54707     -44247.821     -50267.469     -290.82972      0.025070015    1.935          0.005014003  
    388000   240.37704     -44415.025     -50284.026     -201.90623      0.018116176    1.94           0.0036232353 
    389000   248.9057      -44251.342     -50328.577     -590.72146      0.05803994     1.945          0.011607988  
    390000   245.50563     -44265.087     -50259.308     -212.40065      0.01962898     1.95           0.0039257961 
    391000   245.88084     -44216.635     -50220.016     -343.34199      0.035543663    1.955          0.0071087326 
    392000   247.20524     -44118.211     -50153.929     -51.243663      0.0023125404   1.96           0.00046250809
    393000   250.21973     -44188.427     -50297.746     -529.43725      0.053967743    1.965          0.010793549  
    394000   245.37724     -44247.13      -50238.215     -356.25375      0.032909736    1.97           0.0065819472 
    395000   245.30419     -44156.814     -50146.116     -269.06887      0.02296904     1.975          0.0045938079 
    396000   247.12739     -44145.088     -50178.905     -134.58018      0.012568017    1.98           0.0025136033 
    397000   246.91588     -44134.499     -50163.151     -401.87608      0.038307697    1.985          0.0076615394 
    398000   246.73849     -44231.955     -50256.277     -413.72011      0.043710048    1.99           0.0087420096 
    399000   251.29905     -44028.594     -50164.266     -357.96888      0.032524445    1.995          0.006504889  
    400000   245.16232     -44281.113     -50266.951     -187.3037       0.018441562    2              0.0036883125 
Loop time of 494.367 on 56 procs for 100000 steps with 12288 atoms

Performance: 17.477 ns/day, 1.373 hours/ns, 202.279 timesteps/s, 2.486 Matom-step/s
99.8% CPU use with 56 MPI tasks x no OpenMP threads

MPI task timing breakdown:
Section |  min time  |  avg time  |  max time  |%varavg| %total
---------------------------------------------------------------
Pair    | 186.49     | 199.32     | 206.53     |  31.8 | 40.32
Bond    | 0.017283   | 0.030458   | 0.044951   |   3.2 |  0.01
Kspace  | 152.73     | 159.44     | 172.16     |  33.9 | 32.25
Neigh   | 22.439     | 22.45      | 22.46      |   0.1 |  4.54
Comm    | 15.911     | 17.72      | 19.524     |  20.0 |  3.58
Output  | 0.22145    | 0.39644    | 0.56443    |  16.1 |  0.08
Modify  | 73.089     | 79.88      | 92.362     |  52.5 | 16.16
Other   |            | 15.13      |            |       |  3.06

Nlocal:        219.429 ave         234 max         203 min
Histogram: 3 5 3 5 4 14 9 4 5 4
Nghost:        6859.12 ave        6920 max        6808 min
Histogram: 2 7 9 3 9 11 7 5 1 2
Neighs:        96049.7 ave      103140 max       87977 min
Histogram: 3 5 2 6 8 8 10 4 5 5

Total # of neighbors = 5378783
Ave neighs/atom = 437.72648
Ave special neighs/atom = 2
Neighbor list builds = 1921
Dangerous builds = 0
kspace_style pppm/tip4p 1.0e-5
next nloop
jump SELF loop_start
run 100000 # 100ps
PPPM initialization ...
  extracting TIP4P info from pair style
  using 12-bit tables for long-range coulomb
  G vector (1/distance) = 0.32815664
  grid = 50 50 50
  stencil order = 5
  estimated absolute RMS force accuracy = 0.0035802102
  estimated relative force accuracy = 1.0781697e-05
  using double precision KISS FFT
  3d grid and FFT values/proc = 11424 2800
Generated 0 of 1 mixed pair_coeff terms from geometric mixing rule
Per MPI rank memory allocation (min/avg/max) = 10.91 | 11.03 | 11.12 Mbytes
   Step          Temp          TotEng         PotEng          Pxy           v_sxy         v_strain     v_viscosity  
    400000   245.15919     -44281.196     -50266.957     -175.32713      0.017213474    2              0.0034426948 
    401000   248.40576     -44295.709     -50360.738     -224.27805      0.020285006    2.005          0.0040570012 
    402000   245.39562     -44180.712     -50172.246     -287.17305      0.029217986    2.01           0.0058435972 
    403000   244.82832     -44168.51      -50146.193     -252.19475      0.02300421     2.015          0.0046008421 
    404000   245.64063     -44155.96      -50153.477     -452.13534      0.04358417     2.02           0.0087168341 
    405000   243.46718     -44379.026     -50323.476     -520.3939       0.055922828    2.025          0.011184566  
    406000   244.89816     -44254.367     -50233.756     -561.01099      0.057282498    2.03           0.0114565    
    407000   244.48973     -44316.878     -50286.294     -479.22917      0.052327929    2.035          0.010465586  
    408000   244.75264     -44195.327     -50171.163     -504.30249      0.047369872    2.04           0.0094739745 
    409000   245.43543     -44284.07      -50276.576      24.652052      0.0016416167   2.045          0.00032832334
    410000   245.72882     -44355.652     -50355.322     -31.410733      0.00049510129  2.05           9.9020257e-05
    411000   243.74175     -44331.771     -50282.924     -342.52494      0.036587691    2.055          0.0073175382 
    412000   246.47694     -44278.812     -50296.747     -397.33392      0.03959765     2.06           0.00791953   
    413000   243.96164     -44426.195     -50382.718     -287.45287      0.028096173    2.065          0.0056192345 
    414000   248.09159     -44177.352     -50234.71      -257.17606      0.028004184    2.07           0.0056008367 
    415000   244.81456     -44324.372     -50301.719     -103.4854       0.0080690936   2.075          0.0016138187 
    416000   242.27475     -44302.719     -50218.054     -310.02328      0.030483539    2.08           0.0060967079 
    417000   248.87154     -44084.361     -50160.763     -334.00648      0.032375334    2.085          0.0064750669 
    418000   247.9093      -44155.998     -50208.905     -398.34735      0.035690874    2.09           0.0071381749 
    419000   243.82728     -44263.153     -50216.395     -206.57913      0.020075962    2.095          0.0040151923 
    420000   246.81287     -44192.101     -50218.238     -440.8753       0.041924328    2.1            0.0083848657 
    421000   243.7882      -44232.903     -50185.191     -212.0119       0.01951242     2.105          0.0039024839 
    422000   243.50169     -44142.56      -50087.852     -384.75373      0.039450265    2.11           0.0078900529 
    423000   247.23192     -44198.623     -50234.992     -180.63836      0.017232485    2.115          0.003446497  
    424000   245.6713      -44365.229     -50363.494     -386.12401      0.039080078    2.12           0.0078160157 
    425000   242.91453     -44366.98      -50297.936     -168.65456      0.017965204    2.125          0.0035930407 
    426000   247.15242     -44274.147     -50308.575     -289.4148       0.032077464    2.13           0.0064154928 
    427000   245.84588     -44313.499     -50316.027     -201.71833      0.017483089    2.135          0.0034966178 
    428000   241.56583     -44430.422     -50328.448      104.23067     -0.0086216682   2.14          -0.0017243336 
    429000   243.35197     -44282.911     -50224.548     -26.41571       0.0041243596   2.145          0.00082487193
    430000   243.92255     -44432.459     -50388.027     -226.44323      0.023090768    2.15           0.0046181537 
    431000   245.58934     -44445.184     -50441.448     -332.75999      0.033584044    2.155          0.0067168088 
    432000   244.98438     -44356.676     -50338.169     -541.90193      0.05343509     2.16           0.010687018  
    433000   246.46055     -44240.401     -50257.936     -115.98213      0.0093313603   2.165          0.0018662721 
    434000   246.94328     -44298.916     -50328.238     -189.11606      0.022907839    2.17           0.0045815678 
    435000   246.91279     -44127.808     -50156.385     -29.872503      0.0054568497   2.175          0.0010913699 
    436000   244.70265     -44302.649     -50277.264     -240.82001      0.020070741    2.18           0.0040141482 
    437000   244.55868     -44172.923     -50144.022     -301.37253      0.029693901    2.185          0.0059387803 
    438000   246.25546     -44180.122     -50192.65       155.42615     -0.01361576     2.19          -0.002723152  
    439000   246.86783     -44259.641     -50287.121     -197.1843       0.022277525    2.195          0.0044555051 
    440000   242.21186     -44244.84      -50158.64      -396.28691      0.035548959    2.2            0.0071097918 
    441000   244.67307     -44265.74      -50239.633     -72.399088      0.0035792462   2.205          0.00071584924
    442000   242.97219     -44382.442     -50314.806     -59.531674      0.0058469983   2.21           0.0011693997 
    443000   245.55698     -44169.713     -50165.187      4.3606576     -0.0027596099   2.215         -0.00055192198
    444000   246.30662     -44148.279     -50162.056     -636.79682      0.062229698    2.22           0.01244594   
    445000   244.79303     -44278.129     -50254.951     -83.18611       0.0052998895   2.225          0.0010599779 
    446000   246.16223     -44287.292     -50297.544      57.196536     -0.0069184621   2.23          -0.0013836924 
    447000   246.9708      -44351.75      -50381.744     -50.195443      0.0094946333   2.235          0.0018989267 
    448000   247.04519     -44221.516     -50253.326     -264.33177      0.028187511    2.24           0.0056375022 
    449000   245.10348     -44287.953     -50272.354     -235.20985      0.026262006    2.245          0.0052524011 
    450000   245.29098     -44316.49      -50305.47      -534.99735      0.052212124    2.25           0.010442425  
    451000   245.16306     -44137.397     -50123.253     -212.0543       0.023790771    2.255          0.0047581541 
    452000   242.48537     -44249.707     -50170.185     -270.74184      0.026359143    2.26           0.0052718287 
    453000   243.54728     -44196.598     -50143.004     -59.67062       0.0042971932   2.265          0.00085943864
    454000   251.78506     -44044.666     -50192.203      115.89197     -0.014675837    2.27          -0.0029351673 
    455000   247.09899     -44268.482     -50301.605     -253.20373      0.024927959    2.275          0.0049855918 
    456000   243.46044     -44150.703     -50094.988     -263.63674      0.02483332     2.28           0.0049666639 
    457000   244.18511     -44172.038     -50134.016     -294.84514      0.031742142    2.285          0.0063484284 
    458000   242.46337     -44299.938     -50219.879     -71.734432      0.0033483146   2.29           0.00066966292
    459000   244.76755     -44200.355     -50176.554     -175.06062      0.016333198    2.295          0.0032666396 
    460000   244.46362     -44227.15      -50195.929     -313.81473      0.029776618    2.3            0.0059553236 
    461000   246.88747     -44388.536     -50416.494     -396.34549      0.042293443    2.305          0.0084586885 
    462000   246.9065      -44177.076     -50205.5       -72.625187      0.0087233823   2.31           0.0017446765 
    463000   247.11483     -44192.399     -50225.908      40.336699     -0.0011218237   2.315         -0.00022436474
    464000   246.59627     -44278.834     -50299.683     -462.40882      0.03986294     2.32           0.0079725881 
    465000   246.22051     -44193.055     -50204.729     -467.03543      0.047645628    2.325          0.0095291255 
    466000   244.26328     -44389.255     -50353.142     -311.20013      0.027389526    2.33           0.0054779052 
    467000   247.05731     -44194.196     -50226.301     -339.75965      0.03317403     2.335          0.0066348059 
    468000   245.78173     -44185.339     -50186.3       -331.43741      0.03384304     2.34           0.0067686079 
    469000   249.22961     -44091.565     -50176.709     -428.56309      0.043177454    2.345          0.0086354907 
    470000   246.96348     -44304.206     -50334.021     -516.48186      0.056134748    2.35           0.01122695   
    471000   248.06262     -44152.333     -50208.984     -174.82584      0.017415873    2.355          0.0034831747 
    472000   245.86537     -44234.624     -50237.627     -49.334271      0.0046639291   2.36           0.00093278581
    473000   248.45588     -44241.252     -50307.505     -282.21806      0.02513629     2.365          0.0050272579 
    474000   242.96018     -44347.884     -50279.955     -109.96479      0.0073264474   2.37           0.0014652895 
    475000   249.10321     -44182.871     -50264.929     -85.201735      0.0080981973   2.375          0.0016196395 
    476000   243.19395     -44363.282     -50301.061     -352.46352      0.032459906    2.38           0.0064919812 
    477000   246.55302     -44332.893     -50352.686     -180.17643      0.020194067    2.385          0.0040388134 
    478000   248.23977     -44421.068     -50482.044     -364.35597      0.033357861    2.39           0.0066715721 
    479000   249.5982      -44193.957     -50288.1       -115.27952      0.0084470894   2.395          0.0016894179 
    480000   243.47586     -44365.125     -50309.786     -140.53831      0.012030503    2.4            0.0024061006 
    481000   252.02851     -44161.215     -50314.696     -219.91815      0.021364764    2.405          0.0042729527 
    482000   249.33247     -44283.59      -50371.246     -222.28249      0.021295697    2.41           0.0042591393 
    483000   243.78851     -44430.678     -50382.973     -295.33951      0.028248742    2.415          0.0056497484 
    484000   247.05888     -44145.962     -50178.106     -106.38889      0.010728       2.42           0.0021456001 
    485000   243.59796     -44383.336     -50330.979     -257.17833      0.026879047    2.425          0.0053758094 
    486000   244.63238     -44510.529     -50483.428     -368.93565      0.035131408    2.43           0.0070262816 
    487000   245.9226      -44153.149     -50157.549     -331.27422      0.034246905    2.435          0.0068493809 
    488000   244.26819     -44262.454     -50226.461     -12.75418       0.0046362561   2.44           0.00092725122
    489000   242.59766     -44351.765     -50274.985     -93.174895      0.0078430227   2.445          0.0015686045 
    490000   244.80835     -44151.539     -50128.735     -238.19351      0.024991875    2.45           0.004998375  
    491000   246.15779     -44274.464     -50284.607     -207.4881       0.01932169     2.455          0.003864338  
    492000   244.69323     -44258.998     -50233.382     -127.23954      0.010516482    2.46           0.0021032963 
    493000   246.65228     -44242.344     -50264.56       10.864469     -0.0002968298   2.465         -5.9365959e-05
    494000   242.68907     -44276.489     -50201.941     -449.00251      0.040915137    2.47           0.0081830274 
    495000   244.60148     -44338.917     -50311.061     -242.34371      0.02670497     2.475          0.0053409941 
    496000   243.93637     -44278.867     -50234.772     -571.84188      0.054597454    2.48           0.010919491  
    497000   247.46244     -44237.746     -50279.743     -678.93278      0.066872601    2.485          0.01337452   
    498000   247.17895     -44272.672     -50307.747     -66.722749      0.0059398959   2.49           0.0011879792 
    499000   246.19315     -44267.521     -50278.527     -25.729799      0.0010067394   2.495          0.00020134788
    500000   240.25038     -44345.871     -50211.779     -177.31566      0.019549549    2.5            0.0039099097 
Loop time of 426.856 on 56 procs for 100000 steps with 12288 atoms

Performance: 20.241 ns/day, 1.186 hours/ns, 234.271 timesteps/s, 2.879 Matom-step/s
99.7% CPU use with 56 MPI tasks x no OpenMP threads

MPI task timing breakdown:
Section |  min time  |  avg time  |  max time  |%varavg| %total
---------------------------------------------------------------
Pair    | 186.26     | 196.96     | 203.83     |  27.9 | 46.14
Bond    | 0.014302   | 0.02577    | 0.037221   |   3.1 |  0.01
Kspace  | 114.15     | 120.16     | 130.33     |  33.3 | 28.15
Neigh   | 22.247     | 22.256     | 22.265     |   0.1 |  5.21
Comm    | 15.33      | 16.556     | 18.112     |  16.3 |  3.88
Output  | 0.80981    | 1.1501     | 1.5493     |  21.2 |  0.27
Modify  | 51.801     | 56.73      | 66.269     |  45.1 | 13.29
Other   |            | 13.02      |            |       |  3.05

Nlocal:        219.429 ave         234 max         194 min
Histogram: 1 0 1 3 5 12 12 9 9 4
Nghost:        7288.11 ave        7351 max        7210 min
Histogram: 3 0 1 9 11 10 8 7 1 6
Neighs:        96048.7 ave      102713 max       83451 min
Histogram: 1 0 0 3 7 12 8 12 9 4

Total # of neighbors = 5378729
Ave neighs/atom = 437.72209
Ave special neighs/atom = 2
Neighbor list builds = 1905
Dangerous builds = 0
kspace_style pppm/tip4p 1.0e-5
next nloop
jump SELF loop_start
run 100000 # 100ps
PPPM initialization ...
  extracting TIP4P info from pair style
  using 12-bit tables for long-range coulomb
  G vector (1/distance) = 0.32815664
  grid = 50 75 50
  stencil order = 5
  estimated absolute RMS force accuracy = 0.0035802102
  estimated relative force accuracy = 1.0781697e-05
  using double precision KISS FFT
  3d grid and FFT values/proc = 15776 4000
Generated 0 of 1 mixed pair_coeff terms from geometric mixing rule
Per MPI rank memory allocation (min/avg/max) = 11.21 | 11.34 | 11.45 Mbytes
   Step          Temp          TotEng         PotEng          Pxy           v_sxy         v_strain     v_viscosity  
    500000   240.24961     -44345.868     -50211.759     -168.10211      0.01860413     2.5            0.003720826  
    501000   243.74794     -44091.853     -50043.158     -543.68221      0.055021874    2.505          0.011004375  
    502000   248.09091     -44243.026     -50300.368     -132.58727      0.0090711884   2.51           0.0018142377 
    503000   240.69264     -44402.062     -50278.769     -395.87323      0.037655985    2.515          0.0075311971 
    504000   245.5011      -44286.259     -50280.368     -429.81831      0.04275065     2.52           0.0085501299 
    505000   246.45663     -44303.213     -50320.652     -327.85429      0.032776092    2.525          0.0065552183 
    506000   246.43717     -44168.546     -50185.51      -393.08174      0.036445726    2.53           0.0072891453 
    507000   249.71186     -44133.271     -50230.19      -202.24349      0.017427362    2.535          0.0034854723 
    508000   244.46399     -44163.181     -50131.968      17.616266     -0.0016821042   2.54          -0.00033642084
    509000   245.94715     -44252.346     -50257.346      103.81703     -0.0090351929   2.545         -0.0018070386 
    510000   246.25621     -44138.386     -50150.932     -328.26822      0.030714604    2.55           0.0061429208 
    511000   246.44207     -44199.036     -50216.12      -217.96328      0.017967405    2.555          0.003593481  
    512000   243.98703     -44280.72      -50237.862     -175.83729      0.013641317    2.56           0.0027282635 
    513000   247.76856     -44113.422     -50162.893     -207.18095      0.017160246    2.565          0.0034320493 
    514000   246.51069     -44130.788     -50149.547     -213.25313      0.017054351    2.57           0.0034108702 
    515000   243.59049     -44382.127     -50329.587     -508.98741      0.054000463    2.575          0.010800093  
    516000   248.89278     -44148.726     -50225.647     -220.20592      0.021563974    2.58           0.0043127948 
    517000   245.27982     -44328.864     -50317.57      -237.66451      0.020894771    2.585          0.0041789542 
    518000   245.52912     -44253.138     -50247.932     -399.59522      0.038308903    2.59           0.0076617806 
    519000   246.68177     -44192.292     -50215.229     -284.28295      0.024255535    2.595          0.0048511069 
    520000   246.10085     -44293.592     -50302.345      30.400971     -0.0045525804   2.6           -0.00091051608
    521000   244.62601     -44256.917     -50229.661     -95.572627      0.014415384    2.605          0.0028830768 
    522000   248.88934     -43989.579     -50066.415     -108.25875      0.0094040137   2.61           0.0018808027 
    523000   246.27781     -44252.078     -50265.152     -402.64424      0.042747626    2.615          0.0085495252 
    524000   247.87919     -44199.962     -50252.135     -214.20587      0.015978308    2.62           0.0031956616 
    525000   244.4759      -44310.546     -50279.625     -350.73617      0.036478862    2.625          0.0072957723 
    526000   247.62782     -44344.379     -50390.414     -505.28642      0.053340581    2.63           0.010668116  
    527000   242.07412     -44345.878     -50256.315     -275.79462      0.026309952    2.635          0.0052619903 
    528000   244.65106     -44280.235     -50253.591     -367.20778      0.035961573    2.64           0.0071923146 
    529000   248.54802     -44209.544     -50278.047     -299.48067      0.025321198    2.645          0.0050642396 
    530000   242.65408     -44452.205     -50376.802     -245.27779      0.0242218      2.65           0.00484436   
    531000   248.14558     -44187.402     -50246.079      31.216994     -0.0032266331   2.655         -0.00064532663
    532000   247.19751     -44226.303     -50261.832     -343.43722      0.032992843    2.66           0.0065985686 
    533000   245.50912     -44368.892     -50363.197     -229.57549      0.024243831    2.665          0.0048487661 
    534000   244.08054     -44331.304     -50290.729     -295.07858      0.026146706    2.67           0.0052293412 
    535000   249.13266     -44066.299     -50149.076     -70.165804      0.0067118977   2.675          0.0013423795 
    536000   240.61109     -44339.716     -50214.432     -137.22047      0.011939051    2.68           0.0023878103 
    537000   250.10464     -44060.364     -50166.873     -434.03288      0.044965221    2.685          0.0089930442 
    538000   246.62798     -44292.49      -50314.113     -365.48391      0.034893641    2.69           0.0069787282 
    539000   245.24009     -44301.493     -50289.23      -208.17113      0.021946536    2.695          0.0043893072 
    540000   244.12787     -44199.348     -50159.929     -224.37928      0.020914535    2.7            0.0041829071 
    541000   243.59727     -44228.693     -50176.319     -97.852408      0.01258883     2.705          0.002517766  
    542000   247.35733     -44226.397     -50265.828     -272.40763      0.03065909     2.71           0.006131818  
[...]
   1862000   245.77618     -44129.271     -50130.097     -316.14495      0.03552932     9.31           0.0071058641 
   1863000   245.71873     -44220.522     -50219.945     -440.85146      0.042151583    9.315          0.0084303166 
   1864000   244.72682     -44205.298     -50180.503     -275.18561      0.028971971    9.32           0.0057943942 
   1865000   245.3832      -44126.491     -50117.722     -327.75842      0.035892313    9.325          0.0071784626 
   1866000   248.35063     -44158.637     -50222.32      -338.59616      0.034201104    9.33           0.0068402208 
   1867000   244.68771     -44138.115     -50112.365     -113.75536      0.010670148    9.335          0.0021340295 
   1868000   245.63845     -44113.56      -50111.023     -193.27576      0.018509793    9.34           0.0037019585 
   1869000   248.31024     -44119.283     -50181.98      -411.71174      0.035873968    9.345          0.0071747936 
   1870000   244.50316     -44235.924     -50205.668     -351.4254       0.03271605     9.35           0.00654321   
   1871000   246.50335     -44069.111     -50087.691     -103.30814      0.0088803928   9.355          0.0017760786 
   1872000   239.99501     -44341.626     -50201.3        23.713462     -0.00072548492  9.36          -0.00014509698
   1873000   248.74418     -44229.054     -50302.346     -273.84248      0.027517016    9.365          0.0055034032 
   1874000   246.99574     -44135.757     -50166.359     -467.51298      0.042627361    9.37           0.0085254723 
   1875000   242.65722     -44318.084     -50242.757     -432.87718      0.042580897    9.375          0.0085161795 
   1876000   245.45852     -44441.807     -50434.877     -89.926413      0.0082217637   9.38           0.0016443527 
   1877000   244.89602     -44395.14      -50374.476     -77.607972      0.011692781    9.385          0.0023385562 
   1878000   245.73404     -44253.543     -50253.34      -211.11321      0.018816396    9.39           0.0037632791 
   1879000   242.56195     -44306.111     -50228.458     -287.34003      0.029468835    9.395          0.0058937671 
   1880000   244.74609     -44459.499     -50435.175     -96.371516      0.008593034    9.4            0.0017186068 
   1881000   245.33647     -44234.036     -50224.126     -260.00786      0.028853358    9.405          0.0057706715 
   1882000   246.72254     -44260.538     -50284.47       1.8749443     -0.00064510849  9.41          -0.0001290217 
   1883000   241.65844     -44474.457     -50374.745     -252.28919      0.022522226    9.415          0.0045044453 
   1884000   246.21255     -44225.075     -50236.555     -667.56397      0.065652693    9.42           0.013130539  
   1885000   248.25159     -44333.625     -50394.89      -559.2487       0.056601329    9.425          0.011320266  
   1886000   247.80344     -44094.718     -50145.041     -271.7087       0.023561329    9.43           0.0047122659 
   1887000   247.14306     -44058.972     -50093.172     -503.28301      0.049653646    9.435          0.0099307293 
   1888000   246.18382     -44320.527     -50331.306     -202.0479       0.015764893    9.44           0.0031529786 
   1889000   244.078       -44389.187     -50348.55      -611.87916      0.063338768    9.445          0.012667754  
   1890000   244.251       -44223.843     -50187.43      -305.07217      0.027974138    9.45           0.0055948277 
   1891000   251.77656     -44100.871     -50248.201     -378.81137      0.037752306    9.455          0.0075504611 
   1892000   246.12412     -44345.667     -50354.988     -419.46311      0.042327999    9.46           0.0084655997 
   1893000   246.19533     -44225.708     -50236.767      85.316412     -0.0095436241   9.465         -0.0019087248 
   1894000   244.22149     -44384.215     -50347.082     -159.12536      0.018055078    9.47           0.0036110156 
   1895000   246.15699     -44129.153     -50139.277     -446.2263       0.046389387    9.475          0.0092778773 
   1896000   245.88641     -44342.153     -50345.67      -317.37818      0.029762663    9.48           0.0059525327 
   1897000   244.59527     -44313.032     -50285.025     -374.89243      0.037476988    9.485          0.0074953976 
   1898000   249.65112     -44181.868     -50277.304     -425.83931      0.042116096    9.49           0.0084232192 
   1899000   241.20481     -44416.473     -50305.685     -238.09336      0.023107368    9.495          0.0046214735 
   1900000   245.63167     -44347.639     -50344.937     -181.06912      0.018323906    9.5            0.0036647812 
Loop time of 414.815 on 56 procs for 100000 steps with 12288 atoms

Performance: 20.829 ns/day, 1.152 hours/ns, 241.071 timesteps/s, 2.962 Matom-step/s
99.8% CPU use with 56 MPI tasks x no OpenMP threads

MPI task timing breakdown:
Section |  min time  |  avg time  |  max time  |%varavg| %total
---------------------------------------------------------------
Pair    | 185.45     | 191.95     | 198.28     |  23.9 | 46.27
Bond    | 0.011635   | 0.021511   | 0.030535   |   2.9 |  0.01
Kspace  | 108.63     | 115.67     | 122.45     |  30.1 | 27.88
Neigh   | 22.092     | 22.101     | 22.111     |   0.1 |  5.33
Comm    | 14.737     | 15.785     | 17.133     |  15.6 |  3.81
Output  | 0.22496    | 0.40177    | 0.57094    |  16.2 |  0.10
Modify  | 51.079     | 56.119     | 65.879     |  45.2 | 13.53
Other   |            | 12.77      |            |       |  3.08

Nlocal:        219.429 ave         236 max         199 min
Histogram: 1 2 5 4 8 12 10 9 3 2
Nghost:        7272.93 ave        7345 max        7214 min
Histogram: 3 9 6 7 9 5 4 8 2 3
Neighs:        96038.5 ave      104907 max       85818 min
Histogram: 1 2 5 7 8 11 10 6 5 1

Total # of neighbors = 5378158
Ave neighs/atom = 437.67562
Ave special neighs/atom = 2
Neighbor list builds = 1902
Dangerous builds = 0
kspace_style pppm/tip4p 1.0e-5
next nloop
jump SELF loop_start
run 100000 # 100ps
PPPM initialization ...
  extracting TIP4P info from pair style
  using 12-bit tables for long-range coulomb
  G vector (1/distance) = 0.32815664
  grid = 50 75 50
  stencil order = 5
  estimated absolute RMS force accuracy = 0.0035802102
  estimated relative force accuracy = 1.0781697e-05
  using double precision KISS FFT
  3d grid and FFT values/proc = 15776 4000
Generated 0 of 1 mixed pair_coeff terms from geometric mixing rule
Per MPI rank memory allocation (min/avg/max) = 11.21 | 11.34 | 11.45 Mbytes
   Step          Temp          TotEng         PotEng          Pxy           v_sxy         v_strain     v_viscosity  
   1900000   245.62918     -44347.704     -50344.941     -170.69645      0.017266777    9.5            0.0034533554 
   1901000   248.76738     -44320.535     -50394.393     -277.76269      0.024676271    9.505          0.0049352542 
   1902000   249.59213     -44109.566     -50203.561     -360.8191       0.034626772    9.51           0.0069253545 
   1903000   245.15062     -44293.974     -50279.526     -528.77063      0.048929696    9.515          0.0097859392 
   1904000   248.28526     -44194.628     -50256.715     -329.81871      0.034797938    9.52           0.0069595876 
   1905000   244.82722     -44290.664     -50268.32      -348.99274      0.034378371    9.525          0.0068756742 
   1906000   244.19537     -44189.93      -50152.159     -388.35566      0.038166538    9.53           0.0076333076 
   1907000   244.75619     -44272.157     -50248.079     -215.65583      0.022410351    9.535          0.0044820702 
   1908000   243.29741     -44291.965     -50232.27      -178.22589      0.016788606    9.54           0.0033577213 
   1909000   249.33213     -44199.189     -50286.836     -295.29755      0.028638701    9.545          0.0057277403 
   1910000   243.92744     -44360.781     -50316.468     -493.45994      0.0495462      9.55           0.00990924   
   1911000   246.4523      -44202.276     -50219.61      -618.19303      0.058233573    9.555          0.011646715  
   1912000   243.4464      -44338.211     -50282.154     -234.12795      0.023764334    9.56           0.0047528668 
   1913000   248.99051     -44125.413     -50204.72      -342.72632      0.035376448    9.565          0.0070752896 
   1914000   246.93171     -44255.183     -50284.222     -163.43302      0.014943546    9.57           0.0029887092 
   1915000   243.90552     -44319.417     -50274.569     -763.87605      0.075767475    9.575          0.015153495  
   1916000   246.94981     -44270.522     -50300.003     -600.60309      0.060094125    9.58           0.012018825  
   1917000   252.42337     -44110.241     -50273.363     -350.52245      0.034188497    9.585          0.0068376993 
   1918000   245.44937     -44324.999     -50317.846     -641.35747      0.063743674    9.59           0.012748735  
   1919000   246.53474     -44197.378     -50216.724     -11.506709     -0.0025368977   9.595         -0.00050737954
   1920000   249.33233     -44195.862     -50283.515     -95.066743      0.013324918    9.6            0.0026649835 
   1921000   246.15588     -44335.241     -50345.337     -439.12133      0.043080298    9.605          0.0086160597 
   1922000   245.51466     -44299.491     -50293.931     -460.27502      0.0449519      9.61           0.00899038   
   1923000   247.03183     -44231.306     -50262.789     -245.88324      0.024471591    9.615          0.0048943181 
   1924000   244.73082     -44287.194     -50262.496     -369.34895      0.037133031    9.62           0.0074266062 
   1925000   244.43766     -44181.621     -50149.766     -395.21899      0.041231271    9.625          0.0082462543 
   1926000   243.15815     -44294.686     -50231.591     -298.43163      0.024968494    9.63           0.0049936989 
   1927000   249.4668      -44060.089     -50151.025      143.85381     -0.016466114    9.635         -0.0032932229 
   1928000   244.15146     -44298.165     -50259.322     -17.880226      0.0014082937   9.64           0.00028165874
   1929000   247.06586     -44230.135     -50262.449     -289.1176       0.026622628    9.645          0.0053245257 
   1930000   245.03387     -44444.63      -50427.332     -101.94948      0.011845886    9.65           0.0023691773 
   1931000   249.01464     -44173.692     -50253.587     -350.07368      0.031657334    9.655          0.0063314669 
   1932000   246.19691     -44382.886     -50393.984      95.166968     -0.0078620999   9.66          -0.00157242   
   1933000   250.10901     -44217.124     -50323.74       81.717755     -0.010693332    9.665         -0.0021386663 
   1934000   244.51315     -44218.156     -50188.144     -317.99667      0.035252069    9.67           0.0070504137 
   1935000   247.35703     -44190.801     -50230.225     -104.69268      0.011359957    9.675          0.0022719914 
   1936000   243.15747     -44386.673     -50323.561     -351.02392      0.034743151    9.68           0.0069486301 
   1937000   243.49227     -44291.17      -50236.232     -29.369867      0.0007364035   9.685          0.0001472807 
   1938000   249.66784     -44003.76      -50099.604      3.6679923     -0.0034553983   9.69          -0.00069107965
   1939000   247.12206     -44391.146     -50424.832      75.153345     -0.013911535    9.695         -0.0027823071 
   1940000   245.1048      -44318.146     -50302.579     -233.11732      0.02164391     9.7            0.0043287819 
   1941000   243.7705      -44284.457     -50236.312     -157.21321      0.014872254    9.705          0.0029744507 
   1942000   246.45607     -44231.836     -50249.262     -177.95055      0.016560664    9.71           0.0033121329 
   1943000   244.45004     -44305.695     -50274.142     -632.48419      0.062925603    9.715          0.012585121  
   1944000   246.26627     -44259.231     -50272.023     -479.60854      0.044251958    9.72           0.0088503916 
   1945000   245.17289     -44248.091     -50234.187     -403.29069      0.040271467    9.725          0.0080542934 
   1946000   246.19025     -44264.074     -50275.009     -464.82965      0.047797978    9.73           0.0095595956 
   1947000   244.39708     -44125.211     -50092.365     -444.78232      0.041685953    9.735          0.0083371906 
   1948000   246.37427     -44332.767     -50348.195     -288.20884      0.026792139    9.74           0.0053584278 
   1949000   247.41723     -44207.394     -50248.287     -336.44954      0.032209937    9.745          0.0064419874 
   1950000   247.43031     -44295.815     -50337.028     -203.42389      0.023060642    9.75           0.0046121283 
   1951000   245.15607     -44224.353     -50210.039     -4.5710247     -0.00060029904  9.755         -0.00012005981
   1952000   247.34846     -44372.901     -50412.116     -433.02164      0.041612445    9.76           0.0083224889 
   1953000   243.90649     -44298.189     -50253.364     -490.59455      0.048529756    9.765          0.0097059512 
   1954000   246.7663      -44315.702     -50340.702     -356.45655      0.036184128    9.77           0.0072368255 
   1955000   246.059       -44196.778     -50204.509     -449.57461      0.046573442    9.775          0.0093146883 
   1956000   246.57728     -44322.974     -50343.359     -90.046231      0.0096477941   9.78           0.0019295588 
   1957000   242.04887     -44479.478     -50389.298     -349.06611      0.036294546    9.785          0.0072589092 
   1958000   244.08286     -44285.379     -50244.861      108.87159     -0.010201822    9.79          -0.0020403644 
   1959000   243.44194     -44340.561     -50284.395     -293.24323      0.027477843    9.795          0.0054955685 
   1960000   247.79839     -44161.967     -50212.167     -368.79041      0.038312271    9.8            0.0076624543 
   1961000   243.79898     -44175.399     -50127.949     -301.96517      0.02933772     9.805          0.0058675439 
   1962000   245.70688     -44201.233     -50200.367     -61.84968       0.004952082    9.81           0.0009904164 
   1963000   244.77414     -44211.695     -50188.055     -252.83629      0.023531352    9.815          0.0047062704 
   1964000   242.21431     -44301.796     -50215.656     -21.542986      0.0021200742   9.82           0.00042401485
   1965000   246.45879     -44121.197     -50138.69      -285.58744      0.032114161    9.825          0.0064228321 
   1966000   245.262       -44240.315     -50228.587     -181.25256      0.017289969    9.83           0.0034579939 
   1967000   245.04944     -44199.974     -50183.056     -306.10814      0.037938612    9.835          0.0075877224 
   1968000   246.85752     -44249.41      -50276.637     -480.79386      0.049207375    9.84           0.009841475  
   1969000   247.44815     -44104.429     -50146.077     -265.20861      0.029766316    9.845          0.0059532632 
   1970000   249.00807     -44166.907     -50246.642     -272.5359       0.027082617    9.85           0.0054165233 
   1971000   245.72464     -44186.177     -50185.744     -385.12689      0.038326126    9.855          0.0076652252 
   1972000   246.04129     -44265.65      -50272.949     -342.29604      0.03211337     9.86           0.0064226739 
   1973000   244.61145     -44283.474     -50255.862     -188.06325      0.018543007    9.865          0.0037086015 
   1974000   246.46547     -44179.961     -50197.616      88.476888     -0.0083546585   9.87          -0.0016709317 
   1975000   242.37054     -44157.815     -50075.49      -243.33343      0.023891824    9.875          0.0047783648 
   1976000   243.70907     -44297.555     -50247.911     -245.94305      0.026737877    9.88           0.0053475754 
   1977000   247.67047     -44153.714     -50200.79      -383.06663      0.036478827    9.885          0.0072957654 
   1978000   244.4656      -44149.338     -50118.165     -294.07497      0.030375222    9.89           0.0060750443 
   1979000   245.11245     -44315.303     -50299.923     -261.61818      0.026340979    9.895          0.0052681958 
   1980000   248.99224     -44189.426     -50268.774     -343.49547      0.033508866    9.9            0.0067017732 
   1981000   247.51075     -44206.822     -50249.998      170.66994     -0.014681936    9.905         -0.0029363872 
   1982000   244.78556     -44277.041     -50253.68      -346.62848      0.034895064    9.91           0.0069790128 
   1983000   247.59104     -44161.7       -50206.837     -35.489056      0.0024984363   9.915          0.00049968725
   1984000   245.08736     -44285.439     -50269.446      132.58792     -0.01216116     9.92          -0.002432232  
   1985000   243.36112     -44163.638     -50105.498     -8.6071691     -0.0029713491   9.925         -0.00059426982
   1986000   242.53099     -44142.731     -50064.323     -156.67525      0.014115894    9.93           0.0028231789 
   1987000   245.83111     -44198.274     -50200.441     -288.44685      0.027560701    9.935          0.0055121403 
   1988000   244.51517     -44343.526     -50313.563     -242.63531      0.028969154    9.94           0.0057938308 
   1989000   245.01469     -44386.266     -50368.499     -204.40442      0.023444313    9.945          0.0046888627 
   1990000   249.2766      -44128.907     -50215.198     -574.46996      0.057801799    9.95           0.01156036   
   1991000   245.05859     -44172.064     -50155.369     -118.44049      0.012764733    9.955          0.0025529467 
   1992000   247.98487     -44156.927     -50211.68      -192.88648      0.020852868    9.96           0.0041705736 
   1993000   242.35936     -44311.608     -50229.01       40.487462     -0.0081764479   9.965         -0.0016352896 
   1994000   248.41117     -44159.474     -50224.635     -380.35534      0.038710586    9.97           0.0077421172 
   1995000   246.5213      -44241.03      -50260.049     -399.12787      0.040322508    9.975          0.0080645017 
   1996000   247.82974     -44192.217     -50243.182     -238.10806      0.025166262    9.98           0.0050332525 
   1997000   244.36189     -44367.278     -50333.572     -90.960212      0.008881899    9.985          0.0017763798 
   1998000   248.16889     -44254.438     -50313.684     -504.47341      0.052036751    9.99           0.01040735   
   1999000   244.91768     -44282.7       -50262.565     -453.85957      0.044695433    9.995          0.0089390865 
   2000000   245.01397     -44308.232     -50290.447     -237.22671      0.021073184    10             0.0042146367 
Loop time of 487.174 on 56 procs for 100000 steps with 12288 atoms

Performance: 17.735 ns/day, 1.353 hours/ns, 205.266 timesteps/s, 2.522 Matom-step/s
99.8% CPU use with 56 MPI tasks x no OpenMP threads

MPI task timing breakdown:
Section |  min time  |  avg time  |  max time  |%varavg| %total
---------------------------------------------------------------
Pair    | 187.89     | 193.9      | 201.29     |  24.4 | 39.80
Bond    | 0.012231   | 0.024294   | 0.035263   |   3.1 |  0.00
Kspace  | 149.3      | 157.53     | 164.14     |  28.6 | 32.34
Neigh   | 22.143     | 22.155     | 22.165     |   0.1 |  4.55
Comm    | 16.217     | 17.422     | 18.956     |  17.9 |  3.58
Output  | 0.22469    | 0.40049    | 0.56898    |  16.1 |  0.08
Modify  | 72.921     | 80.031     | 93.369     |  53.7 | 16.43
Other   |            | 15.71      |            |       |  3.23

Nlocal:        219.429 ave         238 max         204 min
Histogram: 4 6 9 5 8 5 8 7 1 3
Nghost:        6844.23 ave        6903 max        6765 min
Histogram: 2 2 2 1 9 12 14 8 4 2
Neighs:        96061.7 ave      104866 max       88337 min
Histogram: 3 4 10 6 10 3 11 4 1 4

Total # of neighbors = 5379454
Ave neighs/atom = 437.78109
Ave special neighs/atom = 2
Neighbor list builds = 1903
Dangerous builds = 0
kspace_style pppm/tip4p 1.0e-5
next nloop
jump SELF loop_start
# run ${Ttotal}
# variable nloop loop ${nloops}
# label loop_start
# run ${stepsPerReset}
# kspace_style pppm/tip4p 1.0e-5
# next nloop
# jump SELF loop_start
Total wall time: 2:31:54
