LAMMPS (22 Jul 2025 - Update 1)
units real
atom_style full
boundary p p p

# package intel 1 omp 2

pair_style lj/cut/tip4p/long 1 2 1 1 0.1546 9.5

bond_style zero
angle_style zero
pair_modify tail yes

read_data 4096_equilibrated_${T}.data
read_data 4096_equilibrated_246.data
Reading data file ...
  triclinic box = (0 0 0) to (49.79052 49.79052 49.79052) with tilt (0 0 0)
  2 by 4 by 7 MPI processor grid
  reading atoms ...
  12288 atoms
  reading velocities ...
  12288 velocities
  scanning bonds ...
  2 = max bonds/atom
  scanning angles ...
  1 = max angles/atom
  triclinic box = (0 0 0) to (49.79052 49.79052 49.79052) with tilt (0 0 0)
  2 by 4 by 7 MPI processor grid
  reading bonds ...
  8192 bonds
  reading angles ...
  4096 angles
Finding 1-2 1-3 1-4 neighbors ...
  special bond factors lj:    0        0        0       
  special bond factors coul:  0        0        0       
     2 = max # of 1-2 neighbors
     1 = max # of 1-3 neighbors
     1 = max # of 1-4 neighbors
     2 = max # of special neighbors
  special bonds CPU = 0.005 seconds
  read_data CPU = 0.113 seconds
# read_data equilibration_NVT_${T}.data
# replicate 2 2 2

print "Initial configuration loaded."
Initial configuration loaded.
reset_timestep 0
print "Applying shear rate: ${gamma}"
Applying shear rate: 5e-7
change_box all triclinic
Changing box ...
  triclinic box = (0 0 0) to (49.79052 49.79052 49.79052) with tilt (0 0 0)
kspace_style pppm/tip4p 1.0e-5

pair_coeff 1 1 0.18521 3.1589 #O-O
pair_coeff * 2 0.0 0.0

bond_coeff 1 0.9572 #O-H
angle_coeff 1 104.52 #H-O-H

group gH2O type 1 2
12288 atoms in group gH2O
group gO type 1
4096 atoms in group gO

neighbor 3.0 bin
neigh_modify delay 0 every 1 check yes

timestep 1.0
fix 1 gH2O shake 1.0e-4 100 0 b 1 a 1
Finding SHAKE clusters ...
       0 = # of size 2 clusters
       0 = # of size 3 clusters
       0 = # of size 4 clusters
    4096 = # of frozen angles
  find clusters CPU = 0.005 seconds

# # 系统弛豫到平衡态
# fix fnvt_equil all nvt temp ${T} ${T} 100.0
# thermo 1000
# thermo_style custom step temp etotal pe
# thermo_modify flush yes
# run 500000 # 500 ps
# unfix fnvt_equil
# write_data 4096_equilibrated_${T}.data

# 系统剪切变形

fix fdeform all deform 1 xy erate ${gamma} remap v
fix fdeform all deform 1 xy erate 5e-7 remap v
fix fnvt all nvt/sllod temp ${T} ${T} 100.0
fix fnvt all nvt/sllod temp 246 ${T} 100.0
fix fnvt all nvt/sllod temp 246 246 100.0

compute tilt all temp/deform

variable L0_x equal lx
variable L0_y equal ly
variable L0_z equal lz

compute p all pressure NULL virial
variable sxy equal -c_p[4] * 1.01325e-4  # convert to GPa


variable strainInc equal 0.01
variable dt equal 1.0e-15
variable gammaSI equal ${gamma}*1e15
variable gammaSI equal 5e-7*1e15
variable stepsPerReset equal ceil(${strainInc}/(${gammaSI}*${dt}))
variable stepsPerReset equal ceil(0.01/(${gammaSI}*${dt}))
variable stepsPerReset equal ceil(0.01/(500000000*${dt}))
variable stepsPerReset equal ceil(0.01/(500000000*1e-15))
print "Steps per reset: ${stepsPerReset}"
Steps per reset: 20000

variable massAll equal mass(all)/6.022e23
variable volCm3 equal vol*1.0e-24
variable density_sys equal v_massAll/v_volCm3
variable tau_pa equal v_sxy * 1e9
variable gamma_s equal ${gamma} * 1e15
variable gamma_s equal 5e-7 * 1e15
variable viscosity equal v_tau_pa / v_gamma_s

variable strain equal step*${gammaSI}*${dt}
variable strain equal step*500000000*${dt}
variable strain equal step*500000000*1e-15

thermo 1000
thermo_style custom step temp etotal pe pxy v_sxy v_strain v_viscosity
thermo_modify flush yes

dump traj all custom 500 traj_${gamma}_${T}.lammpstrj id type xu yu zu vx vy vz # 0.5ps
dump traj all custom 500 traj_5e-7_${T}.lammpstrj id type xu yu zu vx vy vz 
dump traj all custom 500 traj_5e-7_246.lammpstrj id type xu yu zu vx vy vz 
dump_modify traj sort id
fix stress all ave/time 500 1 500 v_strain v_sxy file stress_${gamma}_${T}.data  # 每0.5ps输出一次应力和应变
fix stress all ave/time 500 1 500 v_strain v_sxy file stress_5e-7_${T}.data  
fix stress all ave/time 500 1 500 v_strain v_sxy file stress_5e-7_246.data  

# compute peratom all stress/atom NULL
# dump stress gO custom 5000 stress_${gamma}_${T}.lammpstrj id type c_peratom[1] c_peratom[2] c_peratom[3] c_peratom[4] c_peratom[5] c_peratom[6]
# dump_modify stress sort id

variable Ttotal equal 2000000 # 2.0 ns
variable nloops equal ceil(${Ttotal}/(100000))
variable nloops equal ceil(2000000/(100000))
print "Total loops: ${nloops}"
Total loops: 20

variable nloop loop ${nloops}
variable nloop loop 20
label loop_start
run 100000 # 100ps
PPPM initialization ...
  extracting TIP4P info from pair style
  using 12-bit tables for long-range coulomb
  G vector (1/distance) = 0.32815664
  grid = 50 50 50
  stencil order = 5
  estimated absolute RMS force accuracy = 0.0035802102
  estimated relative force accuracy = 1.0781697e-05
  using double precision KISS FFT
  3d grid and FFT values/proc = 11424 2800
WARNING: Communication cutoff 0 is shorter than a bond length based estimate of 4.4358. This may lead to errors. (../comm.cpp:743)
WARNING: Increasing communication cutoff to 13.6118 for TIP4P pair style (../pair_lj_cut_tip4p_long.cpp:497)
Generated 0 of 1 mixed pair_coeff terms from geometric mixing rule
Neighbor list info ...
  update: every = 1 steps, delay = 0 steps, check = yes
  max neighbors/atom: 2000, page size: 100000
  master list distance cutoff = 12.8092
  ghost atom cutoff = 13.6118
  binsize = 6.4046, bins = 8 8 8
  1 neighbor lists, perpetual/occasional/extra = 1 0 0
  (1) pair lj/cut/tip4p/long, perpetual
      attributes: half, newton on
      pair build: half/bin/newton/tri
      stencil: half/bin/3d/tri
      bin: standard
Per MPI rank memory allocation (min/avg/max) = 9.2 | 9.373 | 9.718 Mbytes
   Step          Temp          TotEng         PotEng          Pxy           v_sxy         v_strain     v_viscosity  
         0   245.46957     -44327.561     -50320.901      139.5099      -0.016153381    0             -0.032306763  
      1000   248.50129     -44213.399     -50280.761     -67.896223      0.0070770282   0.0005         0.014154056  
      2000   248.66731     -44268.299     -50339.714     -147.01779      0.016296321    0.001          0.032592642  
      3000   242.84182     -44449.732     -50378.913      207.29357     -0.017226805    0.0015        -0.034453609  
      4000   246.70814     -44318.676     -50342.256     -93.12881       0.012720508    0.002          0.025441016  
      5000   243.60473     -44333.767     -50281.575     -267.25135      0.029212283    0.0025         0.058424566  
      6000   241.31419     -44472.121     -50364.003     -220.14173      0.024221188    0.003          0.048442377  
      7000   243.8977      -44274.331     -50229.292     -310.48475      0.027772633    0.0035         0.055545266  
      8000   243.20319     -44381.101     -50319.105     -86.906308      0.0090292249   0.004          0.01805845   
      9000   249.93844     -44162.834     -50265.285      5.6207015      0.0055454695   0.0045         0.011090939  
     10000   245.22661     -44257.007     -50244.414      178.18565     -0.014061888    0.005         -0.028123776  
     11000   249.09316     -44216.073     -50297.886      249.75633     -0.023493257    0.0055        -0.046986514  
     12000   244.08302     -44266.783     -50226.269     -70.355555      0.0082846456   0.006          0.016569291  
     13000   246.80352     -44436.363     -50462.273      189.44217     -0.017374582    0.0065        -0.034749163  
     14000   247.77006     -44258.488     -50307.996     -227.9514       0.021733226    0.007          0.043466452  
     15000   250.12009     -44257.168     -50364.053      68.360377     -0.0049342142   0.0075        -0.0098684285 
     16000   242.96794     -44513.64      -50445.9       -139.99858      0.017075579    0.008          0.034151159  
     17000   249.5815      -44106.213     -50199.949     -101.09385      0.0099485831   0.0085         0.019897166  
     18000   248.03412     -44367.675     -50423.63      -181.05046      0.018313154    0.009          0.036626309  
     19000   246.66979     -44265.229     -50287.873     -345.01195      0.035778898    0.0095         0.071557797  
     20000   243.00549     -44336.092     -50269.269      166.56499     -0.017787821    0.01          -0.035575642  
     21000   245.35573     -44195.953     -50186.513      90.724948     -0.007998087    0.0105        -0.015996174  
     22000   244.2834      -44299.493     -50263.871     -181.18002      0.02020242     0.011          0.040404841  
     23000   243.02107     -44395.2       -50328.758     -266.28772      0.022804947    0.0115         0.045609894  
     24000   245.51089     -44369.454     -50363.803     -53.347294      0.0022497977   0.012          0.0044995955 
     25000   249.35451     -44242.644     -50330.838     -158.20514      0.012751562    0.0125         0.025503124  
     26000   245.47637     -44257.31      -50250.816     -355.08514      0.032582715    0.013          0.06516543   
     27000   242.71724     -44343.328     -50269.467     -174.6063       0.016224144    0.0135         0.032448287  
     28000   244.39414     -44336.451     -50303.533     -94.6005        0.011206203    0.014          0.022412407  
     29000   244.74679     -44341.876     -50317.568     -200.80313      0.019393705    0.0145         0.038787411  
     30000   245.50012     -44316.929     -50311.015     -169.66688      0.014897163    0.015          0.029794326  
     31000   243.20294     -44453.589     -50391.587      117.02746     -0.010076056    0.0155        -0.020152111  
     32000   247.67602     -44183.543     -50230.754      38.892891     -0.0031415625   0.016         -0.006283125  
     33000   247.63554     -44291.991     -50338.215     -242.06119      0.019995177    0.0165         0.039990354  
     34000   248.27602     -44227.293     -50289.154      42.791805     -0.0043995171   0.017         -0.0087990342 
     35000   246.38664     -44333.236     -50348.966     -40.420883      0.0045330796   0.0175         0.0090661592 
     36000   245.50693     -44352.319     -50346.571      45.891468     -0.0044472725   0.018         -0.0088945451 
     37000   247.08525     -44379.077     -50411.865     -177.33062      0.015567346    0.0185         0.031134693  
     38000   242.91401     -44452.967     -50383.911     -169.33984      0.020187728    0.019          0.040375456  
     39000   244.27006     -44207.499     -50171.551      49.16703      -0.0070868717   0.0195        -0.014173743  
     40000   244.79475     -44124.952     -50101.815      135.31233     -0.015834707    0.02          -0.031669415  
     41000   244.53904     -44248.867     -50219.487     -37.791932      0.0028874977   0.0205         0.0057749954 
     42000   244.89294     -44280.624     -50259.885     -213.188        0.021818691    0.021          0.043637382  
     43000   246.31673     -44221.666     -50235.69       123.30007     -0.012435804    0.0215        -0.024871608  
     44000   243.57031     -44220.961     -50167.929      74.113867     -0.0085036626   0.022         -0.017007325  
     45000   245.53511     -44138.261     -50133.201      132.70032     -0.014140008    0.0225        -0.028280016  
     46000   247.17363     -44301.964     -50336.909     -217.16685      0.025500904    0.023          0.051001808  
     47000   247.31029     -44148.344     -50186.626     -86.966457      0.00053926347  0.0235         0.0010785269 
     48000   242.56422     -44274.93      -50197.333      254.46875     -0.02613594     0.024         -0.052271879  
     49000   248.38528     -44060.996     -50125.525     -78.999744      0.010385142    0.0245         0.020770285  
     50000   246.05484     -44215.855     -50223.484     -306.39157      0.031121303    0.025          0.062242605  
     51000   248.64265     -44198.681     -50269.494      18.041167     -0.0042036703   0.0255        -0.0084073406 
     52000   243.66329     -44274.56      -50223.798      351.50599     -0.036619115    0.026         -0.07323823   
     53000   250.22087     -44131.27      -50240.617      196.6557      -0.017464867    0.0265        -0.034929735  
     54000   245.09452     -44234.187     -50218.37       253.32792     -0.024107175    0.027         -0.048214349  
     55000   248.53526     -44069.619     -50137.81      -2.1033677     -0.00033909367  0.0275        -0.00067818733
     56000   241.92125     -44258.598     -50165.303     -158.33113      0.017135939    0.028          0.034271877  
     57000   250.45248     -43954.381     -50069.383      197.26334     -0.018332024    0.0285        -0.036664049  
     58000   244.93436     -44207.776     -50188.049     -66.618545      0.0063450052   0.029          0.01269001   
     59000   243.81943     -44342.791     -50295.842      201.93801     -0.017424127    0.0295        -0.034848254  
     60000   246.43186     -44139.946     -50156.78      -255.90364      0.026701262    0.03           0.053402524  
     61000   247.10736     -44189.103     -50222.431     -76.208686      0.0089429922   0.0305         0.017885984  
     62000   249.42868     -44070.464     -50160.468     -85.211208      0.01045958     0.031          0.020919161  
     63000   243.90044     -44144.338     -50099.366     -152.47766      0.015148314    0.0315         0.030296628  
     64000   246.10274     -44202.422     -50211.221     -212.3597       0.017723387    0.032          0.035446775  
     65000   247.70558     -44192.656     -50240.59      -115.41423      0.012221377    0.0325         0.024442754  
     66000   247.20666     -44220.816     -50256.568     -251.88573      0.027337747    0.033          0.054675495  
     67000   249.08182     -44121.708     -50203.244      9.8615555     -0.0004577196   0.0335        -0.0009154392 
     68000   243.21248     -44302.618     -50240.849     -190.5054       0.02091781     0.034          0.04183562   
     69000   244.28799     -44268.675     -50233.165     -107.00543      0.011636895    0.0345         0.023273789  
     70000   245.25463     -44223.571     -50211.663     -40.235231      0.0019215485   0.035          0.003843097  
     71000   247.81918     -44297.527     -50348.234      113.12172     -0.009103938    0.0355        -0.018207876  
     72000   248.38235     -44258.574     -50323.032      92.509391     -0.012051802    0.036         -0.024103603  
     73000   246.53429     -44207.288     -50226.623      40.46117      -0.0030320107   0.0365        -0.0060640213 
     74000   244.65338     -44235.087     -50208.499     -59.924601      0.0038452161   0.037          0.0076904322 
     75000   244.88872     -44217.354     -50196.512     -238.26724      0.021057247    0.0375         0.042114494  
     76000   246.18075     -44212.474     -50223.177     -541.8819       0.053782238    0.038          0.10756448   
     77000   247.61108     -44153.376     -50199.002     -66.959411      0.0026357034   0.0385         0.0052714068 
     78000   245.37509     -44355.026     -50346.059      227.83529     -0.021306591    0.039         -0.042613183  
     79000   245.82221     -44232.046     -50233.995     -36.592149      0.0038696627   0.0395         0.0077393253 
     80000   243.60567     -44350.578     -50298.409     -232.29125      0.021605178    0.04           0.043210357  
     81000   246.49201     -44418.867     -50437.17       12.603564      0.00027536     0.0405         0.00055071999
     82000   246.52499     -44295.527     -50314.635      59.277981     -0.0011141483   0.041         -0.0022282966 
     83000   244.04116     -44307.978     -50266.441      39.058617     -0.0026673816   0.0415        -0.0053347633 
     84000   248.39385     -44320.025     -50384.763     -344.40301      0.033821241    0.042          0.067642483  
     85000   249.97649     -44026.534     -50129.914      12.155162     -0.0025054952   0.0425        -0.0050109904 
     86000   244.42131     -44349.197     -50316.943     -71.171077      0.0058745033   0.043          0.011749007  
     87000   248.82095     -44180.199     -50255.365     -157.93669      0.016532043    0.0435         0.033064086  
     88000   244.14885     -44487.151     -50448.244     -3.9213132     -0.00011568666  0.044         -0.00023137332
     89000   245.15351     -44281.871     -50267.493     -96.656317      0.0091904359   0.0445         0.018380872  
     90000   241.56372     -44475.257     -50373.232     -177.50647      0.018938797    0.045          0.037877594  
     91000   242.49974     -44403.623     -50324.452      156.91073     -0.016718432    0.0455        -0.033436865  
     92000   241.7633      -44461.532     -50364.38       116.56655     -0.014399328    0.046         -0.028798656  
     93000   247.89916     -44272.849     -50325.509      116.01885     -0.0084047353   0.0465        -0.016809471  
     94000   246.95146     -44295.327     -50324.848      70.904929     -0.0066376747   0.047         -0.013275349  
     95000   243.40282     -44369.123     -50312.001     -64.686939      0.0064453699   0.0475         0.01289074   
     96000   247.89392     -44240.779     -50293.311     -327.77203      0.037358146    0.048          0.074716293  
     97000   244.41821     -44496.939     -50464.609     -6.7188914     -0.00024434135  0.0485        -0.0004886827 
     98000   246.49562     -44310.27      -50328.662      37.482872     -0.0065550213   0.049         -0.013110043  
     99000   244.58161     -44507.972     -50479.631     -60.173624      0.0043412327   0.0495         0.0086824654 
    100000   247.73751     -44374.883     -50423.596     -323.87205      0.032386354    0.05           0.064772708  
Loop time of 423.491 on 56 procs for 100000 steps with 12288 atoms

Performance: 20.402 ns/day, 1.176 hours/ns, 236.132 timesteps/s, 2.902 Matom-step/s
99.7% CPU use with 56 MPI tasks x no OpenMP threads

MPI task timing breakdown:
Section |  min time  |  avg time  |  max time  |%varavg| %total
---------------------------------------------------------------
Pair    | 187.27     | 199.11     | 206.54     |  24.3 | 47.02
Bond    | 0.014478   | 0.026305   | 0.042862   |   2.8 |  0.01
Kspace  | 108.74     | 116.53     | 127.55     |  31.9 | 27.52
Neigh   | 22.266     | 22.277     | 22.286     |   0.1 |  5.26
Comm    | 14.405     | 15.583     | 17.158     |  16.9 |  3.68
Output  | 0.22528    | 0.40207    | 0.57242    |  16.2 |  0.09
Modify  | 50.874     | 55.739     | 67.28      |  46.3 | 13.16
Other   |            | 13.83      |            |       |  3.27

Nlocal:        219.429 ave         242 max         204 min
Histogram: 3 6 12 8 9 8 4 5 0 1
Nghost:        6866.82 ave        6928 max        6806 min
Histogram: 2 2 5 7 12 14 6 3 3 2
Neighs:        96048.3 ave      107126 max       88301 min
Histogram: 4 4 12 8 8 11 2 5 1 1

Total # of neighbors = 5378706
Ave neighs/atom = 437.72021
Ave special neighs/atom = 2
Neighbor list builds = 1860
Dangerous builds = 0
kspace_style pppm/tip4p 1.0e-5
next nloop
jump SELF loop_start
run 100000 # 100ps
PPPM initialization ...
  extracting TIP4P info from pair style
  using 12-bit tables for long-range coulomb
  G vector (1/distance) = 0.32881326
  grid = 50 54 50
  stencil order = 5
  estimated absolute RMS force accuracy = 0.003443216
  estimated relative force accuracy = 1.0369143e-05
  using double precision KISS FFT
  3d grid and FFT values/proc = 11968 2800
Generated 0 of 1 mixed pair_coeff terms from geometric mixing rule
Per MPI rank memory allocation (min/avg/max) = 10.92 | 10.98 | 11.03 Mbytes
   Step          Temp          TotEng         PotEng          Pxy           v_sxy         v_strain     v_viscosity  
    100000   247.73734     -44374.883     -50423.592     -322.72866      0.032269839    0.05           0.064539677  
    101000   247.85736     -44417.163     -50468.802     -302.25587      0.029376576    0.0505         0.058753151  
    102000   243.35777     -44486.287     -50428.066      39.441015     -0.0045298337   0.051         -0.0090596674 
    103000   248.3297      -44263.279     -50326.451     -117.14214      0.01326296     0.0515         0.02652592   
    104000   243.14619     -44484.049     -50420.662      147.34195     -0.01625075     0.052         -0.0325015    
    105000   248.02338     -44259.813     -50315.506     -59.67649       0.005305864    0.0525         0.010611728  
    106000   247.38103     -44332.795     -50372.805      152.49325     -0.015514929    0.053         -0.031029859  
    107000   240.07496     -44554.744     -50416.37       5.303151       0.00048983891  0.0535         0.00097967782
    108000   244.48941     -44300.902     -50270.31      -128.75453      0.015433454    0.054          0.030866908  
    109000   243.89084     -44508.742     -50463.536     -47.261746      0.0066012437   0.0545         0.013202487  
    110000   246.16854     -44445.046     -50455.452      36.192127     -0.0012593414   0.055         -0.0025186829 
    111000   245.34103     -44498.063     -50488.264      19.535383     -0.0035060513   0.0555        -0.0070121026 
    112000   248.94725     -44340.223     -50418.473      83.365093     -0.0095394821   0.056         -0.019078964  
    113000   245.79859     -44355.378     -50356.751      56.95585      -0.0056761089   0.0565        -0.011352218  
    114000   246.56146     -44310.984     -50330.983     -80.708634      0.0039062846   0.057          0.0078125693 
    115000   249.34006     -44324.783     -50412.624      193.93371     -0.019706458    0.0575        -0.039412916  
    116000   246.01239     -44414.111     -50420.704      53.92871      -0.0045154481   0.058         -0.0090308961 
    117000   249.91906     -44355.485     -50457.462     -63.389782      0.0066644063   0.0585         0.013328813  
    118000   245.60963     -44267.289     -50264.048     -96.383263      0.013597277    0.059          0.027194554  
    119000   245.08186     -44456.353     -50440.226      177.23515     -0.014167593    0.0595        -0.028335186  
    120000   244.70534     -44480.302     -50454.982     -111.14885      0.0092605011   0.06           0.018521002  
    121000   248.90648     -44368.954     -50446.209      106.69337     -0.011226478    0.0605        -0.022452957  
    122000   246.49988     -44383.942     -50402.437     -208.11017      0.021107591    0.061          0.042215183  
    123000   245.43751     -44398.701     -50391.258     -364.24407      0.031514164    0.0615         0.063028327  
    124000   249.01164     -44341.21      -50421.032     -46.480175      0.0055412437   0.062          0.011082487  
    125000   249.24318     -44222.464     -50307.939     -59.52974       0.0060713241   0.0625         0.012142648  
    126000   246.16961     -44365.416     -50375.848     -31.922905      0.0031525544   0.063          0.0063051087 
    127000   244.03442     -44383.48      -50341.779     -40.233615      0.0043763722   0.0635         0.0087527443 
    128000   250.34196     -44140.558     -50252.861     -113.49595      0.012278146    0.064          0.024556292  
    129000   249.80167     -44169.584     -50268.695     -304.81545      0.030979693    0.0645         0.061959387  
    130000   242.64591     -44312.498     -50236.896      111.23819     -0.01332348     0.065         -0.02664696   
    131000   249.10187     -44198.795     -50280.82       254.1081      -0.026406868    0.0655        -0.052813737  
    132000   245.87485     -44324.598     -50327.833     -278.04177      0.024594516    0.066          0.049189031  
    133000   249.66462     -44271.26      -50367.025     -27.322927      0.0022398465   0.0665         0.004479693  
    134000   246.01068     -44307.348     -50313.9        128.84126     -0.013387842    0.067         -0.026775685  
    135000   247.82343     -44199.454     -50250.265     -293.40855      0.028966371    0.0675         0.057932743  
    136000   245.38162     -44308.449     -50299.641      89.298191     -0.011658951    0.068         -0.023317901  
    137000   246.69353     -44297.539     -50320.762     -154.89657      0.017334467    0.0685         0.034668934  
    138000   245.7024      -44195.923     -50194.947     -6.6096313     -0.0003344473   0.069         -0.0006688946 
    139000   244.88802     -44287.707     -50266.847     -28.001854      0.0029149339   0.0695         0.0058298679 
    140000   242.62852     -44325.729     -50249.702      317.49794     -0.033067274    0.07          -0.066134548  
    141000   245.17584     -44293.771     -50279.939     -247.75108      0.02665928     0.0705         0.05331856   
    142000   245.42926     -44073.45      -50065.806      236.80562     -0.025199035    0.071         -0.050398069  
    143000   242.3422      -44323.858     -50240.84       47.772346     -0.0069249496   0.0715        -0.013849899  
    144000   243.04856     -44327.724     -50261.953      90.893325     -0.010341148    0.072         -0.020682296  
    145000   245.19035     -44266.067     -50252.589      15.197193      0.00092949186  0.0725         0.0018589837 
    146000   245.09652     -44207.579     -50191.811      190.23651     -0.019846199    0.073         -0.039692397  
    147000   246.45137     -44322.476     -50339.788     -3.3442156     -0.00038723801  0.0735        -0.00077447601
    148000   242.52871     -44247.307     -50168.843     -232.42862      0.023305678    0.074          0.046611356  
    149000   247.77144     -44162.174     -50211.716     -63.932221      0.0036243238   0.0745         0.0072486477 
    150000   244.27658     -44317.236     -50281.448     -75.907631      0.0068783878   0.075          0.013756776  
    151000   244.68953     -44285.671     -50259.965     -26.649834      0.0044722555   0.0755         0.0089445109 
    152000   245.4247      -44247.57      -50239.814      107.66632     -0.013228367    0.076         -0.026456734  
    153000   242.07873     -44335.357     -50245.906      263.66512     -0.022545949    0.0765        -0.045091899  
    154000   244.54653     -44439.802     -50410.605      4.3095313     -4.2720884e-05  0.077         -8.5441768e-05
    155000   243.2939      -44438.114     -50378.332     -104.20791      0.01248302     0.0775         0.02496604   
    156000   246.25427     -44257.664     -50270.163     -82.861947      0.0073757472   0.078          0.014751494  
    157000   242.27363     -44400.311     -50315.62      -66.114657      0.0068112878   0.0785         0.013622576  
    158000   247.39738     -44205.64      -50246.049     -120.20212      0.01313737     0.079          0.026274741  
    159000   243.12285     -44338.997     -50275.039      190.35329     -0.01344682     0.0795        -0.026893641  
    160000   245.63726     -44241.387     -50238.821     -63.040006      0.0043504885   0.08           0.0087009769 
    161000   244.13927     -44368.317     -50329.176     -70.794409      0.0060091154   0.0805         0.012018231  
    162000   248.50353     -44254.596     -50322.012     -220.46093      0.022341816    0.081          0.044683632  
    163000   249.44044     -44163.252     -50253.544      212.97148     -0.018918704    0.0815        -0.037837408  
    164000   242.48394     -44367.826     -50288.269      291.69337     -0.028301833    0.082         -0.056603666  
    165000   246.09194     -44293.028     -50301.564      276.19808     -0.027161359    0.0825        -0.054322717  
    166000   244.51062     -44225.145     -50195.071      46.182061     -0.0065231244   0.083         -0.013046249  
    167000   245.50571     -44236.778     -50231.001      19.561861      0.00085099103  0.0835         0.0017019821 
    168000   247.18908     -44227.309     -50262.632     -68.45508       0.0096884393   0.084          0.019376879  
    169000   244.48941     -44356.159     -50325.568     -128.79338      0.016272201    0.0845         0.032544401  
    170000   244.40989     -44216.414     -50183.881     -34.425846      0.0012327345   0.085          0.002465469  
    171000   245.96866     -44233.609     -50239.134     -101.26626      0.0099445965   0.0855         0.019889193  
    172000   245.61659     -44129.51      -50126.44       42.061761     -0.0088994477   0.086         -0.017798895  
    173000   244.14948     -44263.771     -50224.88      -84.835343      0.0073391069   0.0865         0.014678214  
    174000   244.3377      -44188.081     -50153.785     -309.44985      0.032096767    0.087          0.064193534  
    175000   249.23385     -44104.672     -50189.92       324.44056     -0.032893867    0.0875        -0.065787735  
    176000   246.55115     -44314.438     -50334.185      226.10849     -0.026047102    0.088         -0.052094205  
    177000   247.30399     -44192.064     -50230.192     -184.22893      0.018630298    0.0885         0.037260597  
    178000   248.73511     -44162.31      -50235.381     -8.6190231      0.0014764442   0.089          0.0029528884 
    179000   244.73142     -44181.787     -50157.104      337.58717     -0.032545751    0.0895        -0.065091501  
    180000   246.69241     -44093.633     -50116.83      -159.68363      0.01446837     0.09           0.028936741  
    181000   242.97053     -44286.71      -50219.033     -205.94332      0.024237812    0.0905         0.048475624  
    182000   245.48483     -44256.027     -50249.739     -336.3822       0.03387584     0.091          0.067751679  
    183000   248.99769     -44090.893     -50170.375     -230.97906      0.02270735     0.0915         0.0454147    
    184000   244.30388     -44304.896     -50269.775     -114.16063      0.011731235    0.092          0.023462471  
    185000   246.83141     -44267.618     -50294.208     -493.06716      0.048208281    0.0925         0.096416563  
    186000   245.64714     -44166.979     -50164.654      124.17825     -0.013833774    0.093         -0.027667547  
    187000   245.68743     -44145.282     -50143.941     -109.97086      0.011528869    0.0935         0.023057739  
    188000   249.09797     -44124.913     -50206.843      237.01606     -0.024221164    0.094         -0.048442328  
    189000   244.28041     -44210.595     -50174.901      388.80677     -0.037457165    0.0945        -0.07491433   
    190000   248.9032      -44021.076     -50098.25       457.13708     -0.0450016      0.095         -0.090003201  
    191000   247.4748      -44123.623     -50165.922     -127.29465      0.012824304    0.0955         0.025648608  
    192000   247.39023     -43999.335     -50039.569     -112.95385      0.013305895    0.096          0.026611789  
    193000   244.82712     -44112.61      -50090.263     -127.6272       0.015780888    0.0965         0.031561776  
    194000   244.48738     -44249.913     -50219.272     -16.536236      0.0012749872   0.097          0.0025499743 
    195000   246.39444     -44086.058     -50101.979     -212.40121      0.023699233    0.0975         0.047398465  
    196000   243.80196     -44300.616     -50253.24      -236.8435       0.024270356    0.098          0.048540712  
    197000   248.05768     -44025.487     -50082.017     -331.08495      0.031067228    0.0985         0.062134456  
    198000   245.12758     -44330.814     -50315.803      168.36902     -0.016477015    0.099         -0.03295403   
    199000   244.67917     -44161.726     -50135.767     -132.28741      0.016581727    0.0995         0.033163454  
    200000   246.00586     -44114.497     -50120.931     -105.86848      0.01073808     0.1            0.021476161  
Loop time of 429.733 on 56 procs for 100000 steps with 12288 atoms

Performance: 20.105 ns/day, 1.194 hours/ns, 232.702 timesteps/s, 2.859 Matom-step/s
99.8% CPU use with 56 MPI tasks x no OpenMP threads

MPI task timing breakdown:
Section |  min time  |  avg time  |  max time  |%varavg| %total
---------------------------------------------------------------
Pair    | 187.22     | 198.27     | 206.14     |  29.8 | 46.14
Bond    | 0.017325   | 0.027013   | 0.044558   |   2.8 |  0.01
Kspace  | 116.68     | 124.14     | 134.46     |  34.8 | 28.89
Neigh   | 21.62      | 21.631     | 21.643     |   0.1 |  5.03
Comm    | 14.607     | 15.716     | 17.695     |  19.5 |  3.66
Output  | 0.22055    | 0.44933    | 0.62189    |  15.7 |  0.10
Modify  | 51.897     | 59.715     | 67.221     |  51.9 | 13.90
Other   |            | 9.788      |            |       |  2.28

Nlocal:        219.429 ave         234 max         203 min
Histogram: 1 5 4 4 13 7 10 3 3 6
Nghost:        6849.71 ave        6895 max        6787 min
Histogram: 2 1 1 4 8 11 13 10 3 3
Neighs:        96060.2 ave      103118 max       89375 min
Histogram: 3 6 3 10 8 9 7 3 2 5

Total # of neighbors = 5379373
Ave neighs/atom = 437.7745
Ave special neighs/atom = 2
Neighbor list builds = 1860
Dangerous builds = 0
kspace_style pppm/tip4p 1.0e-5
next nloop
jump SELF loop_start
run 100000 # 100ps
PPPM initialization ...
  extracting TIP4P info from pair style
  using 12-bit tables for long-range coulomb
  G vector (1/distance) = 0.32760519
  grid = 50 54 50
  stencil order = 5
  estimated absolute RMS force accuracy = 0.0036991513
  estimated relative force accuracy = 1.1139884e-05
  using double precision KISS FFT
  3d grid and FFT values/proc = 11968 2800
Generated 0 of 1 mixed pair_coeff terms from geometric mixing rule
Per MPI rank memory allocation (min/avg/max) = 10.92 | 10.98 | 11.03 Mbytes
   Step          Temp          TotEng         PotEng          Pxy           v_sxy         v_strain     v_viscosity  
    200000   246.00587     -44114.488     -50120.922     -104.63162      0.010612608    0.1            0.021225217  
    201000   248.36253     -44266.756     -50330.729      64.174708     -0.0077276596   0.1005        -0.015455319  
    202000   242.76562     -44300.749     -50228.07       77.065889     -0.0096510154   0.101         -0.019302031  
    203000   244.68022     -44431.577     -50405.644     -111.80505      0.012860257    0.1015         0.025720513  
    204000   248.57158     -44223.093     -50292.171     -56.334463      0.0052714995   0.102          0.010542999  
    205000   245.55917     -44129.61      -50125.137      52.442142     -0.0056485043   0.1025        -0.011297009  
    206000   244.46666     -44418.515     -50387.368     -88.825264      0.0099438762   0.103          0.019887752  
    207000   243.29779     -44247.097     -50187.411      162.73851     -0.017995171    0.1035        -0.035990341  
    208000   241.85705     -44359.902     -50265.039     -376.09466      0.037015477    0.104          0.074030955  
    209000   246.62934     -44298.746     -50320.403     -15.200041      0.0028059871   0.1045         0.0056119742 
    210000   247.10449     -44151.377     -50184.635     -191.13541      0.01622797     0.105          0.032455939  
    211000   247.42402     -44281.868     -50322.927     -360.01926      0.03674043     0.1055         0.073480859  
    212000   246.34627     -44221.184     -50235.929     -300.54831      0.030265481    0.106          0.060530961  
    213000   247.90629     -44130.32      -50183.154     -134.40281      0.01117671     0.1065         0.02235342   
    214000   242.90131     -44392.451     -50323.084     -142.0852       0.011645398    0.107          0.023290796  
    215000   246.52928     -44271.662     -50290.875     -366.12874      0.035322089    0.1075         0.070644179  
    216000   245.98337     -44110.992     -50116.876      104.98888     -0.01298722     0.108         -0.025974441  
    217000   245.98151     -44184.626     -50190.465     -231.34666      0.021403124    0.1085         0.042806247  
    218000   246.90815     -44305.422     -50333.886     -232.28718      0.020772813    0.109          0.041545625  
    219000   247.38361     -44168.595     -50208.668     -28.947666      0.0046642275   0.1095         0.009328455  
    220000   245.94078     -44266.764     -50271.608     -178.94184      0.022997821    0.11           0.045995641  
    221000   245.08318     -44362.516     -50346.422     -215.67952      0.023997575    0.1105         0.047995151  
    222000   247.86164     -44232.314     -50284.058     -130.68426      0.013542399    0.111          0.027084799  
    223000   246.86548     -44115.993     -50143.415      70.98648      -0.0023727135   0.1115        -0.004745427  
    224000   248.22213     -44311.117     -50371.663     -173.93747      0.01620366     0.112          0.03240732   
    225000   244.25726     -44362.432     -50326.172      54.290635     -0.0062541562   0.1125        -0.012508312  
    226000   248.12292     -44173.135     -50231.259     -196.62982      0.016640746    0.113          0.033281491  
    227000   245.94971     -44107.047     -50112.11      -133.61469      0.012545082    0.1135         0.025090164  
    228000   248.94666     -44242.13      -50320.366     -297.81676      0.032330763    0.114          0.064661526  
    229000   244.60183     -44367.143     -50339.296     -340.91465      0.033070199    0.1145         0.066140398  
    230000   246.3297      -44193.027     -50207.367     -203.91949      0.021647472    0.115          0.043294944  
    231000   246.75199     -44164.422     -50189.073     -106.59875      0.0077918194   0.1155         0.015583639  
    232000   242.96625     -44419.3       -50351.519      319.94016     -0.028537265    0.116         -0.057074529  
    233000   248.94595     -44093.116     -50171.334     -382.25934      0.035351901    0.1165         0.070703803  
    234000   249.07857     -44272.647     -50354.104     -197.79576      0.021623946    0.117          0.043247893  
    235000   245.60978     -44275.464     -50272.228     -69.068494      0.011880374    0.1175         0.023760749  
    236000   245.83614     -44173.72      -50176.01      -276.90802      0.027504361    0.118          0.055008722  
    237000   246.4504      -44169.728     -50187.015      163.41328     -0.017281577    0.1185        -0.034563154  
    238000   246.54762     -44286.295     -50305.956     -128.29658      0.015905016    0.119          0.031810031  
    239000   245.80092     -44203.822     -50205.252      9.028759      -0.0039507731   0.1195        -0.0079015463 
    240000   248.56564     -44177.983     -50246.916      41.121539     -0.0075802506   0.12          -0.015160501  
    241000   244.23677     -44371.736     -50334.976     -262.4683       0.027253934    0.1205         0.054507868  
    242000   246.2281      -44181.007     -50192.867      105.31206     -0.01100464     0.121         -0.022009281  
    243000   242.62341     -44277.69      -50201.539      305.71385     -0.030327318    0.1215        -0.060654637  
    244000   247.84168     -44182.091     -50233.347     -92.681627      0.012376169    0.122          0.024752338  
    245000   247.6978      -44136.171     -50183.915     -73.883606      0.011539533    0.1225         0.023079066  
    246000   244.22793     -44454.041     -50417.065     -134.8879       0.016006859    0.123          0.032013718  
    247000   250.37622     -44016.074     -50129.213      73.940186     -0.0074365567   0.1235        -0.014873113  
    248000   242.56993     -44397.383     -50319.926      102.84548     -0.0055033454   0.124         -0.011006691  
    249000   245.84421     -44287.935     -50290.422      197.40963     -0.017990585    0.1245        -0.035981169  
    250000   248.38793     -44209.808     -50274.402     -159.18818      0.017116841    0.125          0.034233682  
    251000   244.24266     -44360.054     -50323.437     -60.60055       0.004547573    0.1255         0.009095146  
    252000   245.31792     -44241.733     -50231.37       5.2539763     -0.0010962702   0.126         -0.0021925404 
    253000   246.51481     -44229.616     -50248.476     -463.38355      0.04625557     0.1265         0.092511139  
    254000   243.09497     -44406.667     -50342.029      85.362761     -0.010724787    0.127         -0.021449575  
    255000   248.99026     -44274.273     -50353.573      426.06238     -0.042317794    0.1275        -0.084635589  
    256000   246.18683     -44021.999     -50032.851     -241.92287      0.023906844    0.128          0.047813688  
    257000   247.02762     -44195.093     -50226.474     -23.352673      0.0057657812   0.1285         0.011531562  
    258000   246.2005      -44267.345     -50278.531      79.609846     -0.0082009943   0.129         -0.016401989  
    259000   245.43655     -44260.821     -50253.355      328.91328     -0.036743502    0.1295        -0.073487003  
    260000   246.93529     -44108.395     -50137.521     -82.329669      0.0021326739   0.13           0.0042653479 
    261000   244.21953     -44125.423     -50088.242     -177.05393      0.019277051    0.1305         0.038554102  
    262000   248.58432     -44254.26      -50323.649     -54.050381      0.0071694461   0.131          0.014338892  
    263000   242.05204     -44306.659     -50216.557     -24.348261      0.0031749566   0.1315         0.0063499131 
    264000   247.19471     -44123.537     -50158.997      191.36751     -0.014632209    0.132         -0.029264417  
    265000   244.16284     -44414.887     -50376.322      34.374305     -0.0022314262   0.1325        -0.0044628524 
    266000   245.41073     -44363.065     -50354.968      183.45699     -0.020423055    0.133         -0.04084611   
    267000   252.32461     -43991.92      -50152.631      289.87051     -0.028476391    0.1335        -0.056952781  
    268000   246.55936     -44265.976     -50285.924     -56.499205      0.010422814    0.134          0.020845628  
    269000   243.17647     -44413.487     -50350.839     -112.45173      0.011204135    0.1345         0.022408269  
    270000   245.85445     -44250.388     -50253.125     -328.07513      0.035715467    0.135          0.071430934  
    271000   245.11979     -44359.308     -50344.108     -52.156415      0.0067382097   0.1355         0.013476419  
    272000   248.94442     -44127.006     -50205.187     -463.75494      0.040635548    0.136          0.081271095  
    273000   245.29012     -44284.977     -50273.935     -141.76887      0.02015523     0.1365         0.04031046   
    274000   244.91455     -44205.437     -50185.226      5.1270429      0.00025500084  0.137          0.00051000168
    275000   247.80992     -44249.144     -50299.625     -106.20461      0.011315909    0.1375         0.022631819  
    276000   246.69549     -44276.159     -50299.43       214.67342     -0.022467927    0.138         -0.044935855  
    277000   246.33085     -44368.147     -50382.516      28.755758     -0.0046295074   0.1385        -0.0092590147 
    278000   243.59172     -44461.283     -50408.773     -27.462896      0.0052762509   0.139          0.010552502  
    279000   245.71701     -44279.323     -50278.704     -109.34473      0.013721567    0.1395         0.027443133  
    280000   245.74885     -44315.617     -50315.776      31.313488     -0.0021615883   0.14          -0.0043231767 
    281000   246.74441     -44288.886     -50313.352     -26.144085      0.0027272976   0.1405         0.0054545952 
    282000   245.98493     -44251.527     -50257.45      -8.5123633      0.00049796468  0.141          0.00099592937
    283000   243.5917      -44416.961     -50364.451     -159.36223      0.016137601    0.1415         0.032275202  
    284000   248.39618     -44239.123     -50303.918     -145.93847      0.009062543    0.142          0.018125086  
    285000   246.0896      -44243.499     -50251.978     -0.93758633    -0.00080007355  0.1425        -0.0016001471 
    286000   245.61579     -44220.81      -50217.72      -94.314031      0.0080172768   0.143          0.016034554  
    287000   245.81868     -44174.145     -50176.008     -42.273036      0.0063324232   0.1435         0.012664846  
    288000   247.81855     -44271.645     -50322.337     -375.7641       0.037161742    0.144          0.074323484  
    289000   246.8424      -44069.861     -50096.719      139.88517     -0.017780046    0.1445        -0.035560092  
    290000   246.82403     -44190.833     -50217.242     -164.9893       0.016701264    0.145          0.033402528  
    291000   245.94024     -44221.181     -50226.013      22.959047     -0.0017341868   0.1455        -0.0034683735 
    292000   245.2765      -44215.521     -50204.146     -3.2537221      0.0019805681   0.146          0.0039611363 
    293000   247.67949     -44029.448     -50076.745     -231.92927      0.023252208    0.1465         0.046504416  
    294000   244.16497     -44252.676     -50214.163     -113.90914      0.011642202    0.147          0.023284404  
    295000   244.53156     -44132.889     -50103.326     -11.572278     -0.00031016933  0.1475        -0.00062033867
    296000   244.99402     -44288.547     -50270.276     -121.28099      0.012480575    0.148          0.024961151  
    297000   245.13131     -44234.411     -50219.492     -206.10335      0.018461168    0.1485         0.036922335  
    298000   246.36662     -44081.695     -50096.937     -63.306333      0.0075135438   0.149          0.015027088  
    299000   244.52529     -44157.04      -50127.324      122.75651     -0.013784756    0.1495        -0.027569511  
    300000   245.11685     -44264.538     -50249.266      12.598385     -0.0011447512   0.15          -0.0022895024 
Loop time of 429.887 on 56 procs for 100000 steps with 12288 atoms

Performance: 20.098 ns/day, 1.194 hours/ns, 232.619 timesteps/s, 2.858 Matom-step/s
99.8% CPU use with 56 MPI tasks x no OpenMP threads

MPI task timing breakdown:
Section |  min time  |  avg time  |  max time  |%varavg| %total
---------------------------------------------------------------
Pair    | 189.48     | 197.68     | 205.74     |  25.2 | 45.99
Bond    | 0.017334   | 0.026825   | 0.044995   |   3.0 |  0.01
Kspace  | 116.19     | 124.09     | 130.86     |  29.8 | 28.87
Neigh   | 22.439     | 22.448     | 22.464     |   0.1 |  5.22
Comm    | 14.763     | 15.737     | 17.876     |  18.7 |  3.66
Output  | 0.21936    | 0.39546    | 0.565      |  16.3 |  0.09
Modify  | 52.095     | 59.816     | 67.237     |  51.3 | 13.91
Other   |            | 9.688      |            |       |  2.25

Nlocal:        219.429 ave         238 max         204 min
Histogram: 5 7 5 8 4 9 9 4 2 3
Nghost:        6898.43 ave        6949 max        6854 min
Histogram: 1 6 9 9 7 5 11 3 2 3
Neighs:        96068.4 ave      105097 max       88577 min
Histogram: 3 6 9 6 7 9 8 2 4 2

Total # of neighbors = 5379828
Ave neighs/atom = 437.81152
Ave special neighs/atom = 2
Neighbor list builds = 1875
Dangerous builds = 0
kspace_style pppm/tip4p 1.0e-5
next nloop
jump SELF loop_start
run 100000 # 100ps
PPPM initialization ...
  extracting TIP4P info from pair style
  using 12-bit tables for long-range coulomb
  G vector (1/distance) = 0.32915594
  grid = 50 60 50
  stencil order = 5
  estimated absolute RMS force accuracy = 0.0033736592
  estimated relative force accuracy = 1.0159674e-05
  using double precision KISS FFT
  3d grid and FFT values/proc = 13056 3200
Generated 0 of 1 mixed pair_coeff terms from geometric mixing rule
Per MPI rank memory allocation (min/avg/max) = 10.99 | 11.06 | 11.12 Mbytes
   Step          Temp          TotEng         PotEng          Pxy           v_sxy         v_strain     v_viscosity  
    300000   245.11686     -44264.545     -50249.273      13.651249     -0.0012524716   0.15          -0.0025049433 
    301000   248.094       -44012.995     -50070.412     -183.0247       0.015487853    0.1505         0.030975707  
    302000   246.36765     -44271.75      -50287.017     -221.43848      0.025561215    0.151          0.051122429  
    303000   248.7053      -44291.934     -50364.276     -72.762939      0.0058611561   0.1515         0.011722312  
    304000   248.17977     -44215.758     -50275.27      -38.362482      0.00084116437  0.152          0.0016823287 
    305000   241.83605     -44328.692     -50233.316     -312.16049      0.030690116    0.1525         0.061380233  
    306000   247.48401     -44147.927     -50190.451     -308.85811      0.028136346    0.153          0.056272693  
    307000   245.68163     -44268.52      -50267.037      180.86128     -0.016867962    0.1535        -0.033735924  
    308000   247.99713     -44219.058     -50274.11      -42.865754      0.00039036936  0.154          0.00078073872
    309000   244.2505      -44360.239     -50323.814     -89.630339      0.0076624807   0.1545         0.015324961  
    310000   248.94805     -44147.896     -50226.165      42.738808     -0.0079579685   0.155         -0.015915937  
    311000   247.66874     -44343.345     -50390.379      59.216111     -0.0064841335   0.1555        -0.012968267  
    312000   250.07788     -44163.865     -50269.72       155.88102     -0.014293258    0.156         -0.028586515  
    313000   241.90901     -44427.262     -50333.668      262.05763     -0.027668387    0.1565        -0.055336774  
    314000   245.70533     -44285.334     -50284.43       294.98865     -0.027325302    0.157         -0.054650603  
    315000   248.32267     -44270.731     -50333.731      225.68881     -0.023195696    0.1575        -0.046391392  
    316000   244.57762     -44276.599     -50248.161     -72.451632      0.0056122005   0.158          0.011224401  
    317000   246.37628     -44346.689     -50362.167     -83.400605      0.011853805    0.1585         0.023707609  
    318000   246.20271     -44260.313     -50271.553      63.836756     -0.0064932848   0.159         -0.01298657   
    319000   242.91337     -44245.892     -50176.819     -110.94747      0.010792768    0.1595         0.021585536  
    320000   246.10202     -44274.499     -50283.28      -13.451718      0.0022543984   0.16           0.0045087969 
    321000   250.7941      -44103.191     -50226.534     -274.08711      0.025453737    0.1605         0.050907473  
    322000   242.38516     -44305.158     -50223.19      -1.2977336     -0.0023196052   0.161         -0.0046392104 
    323000   246.56259     -44160.931     -50180.957     -170.68487      0.015042231    0.1615         0.030084461  
    324000   244.0362      -44241.048     -50199.39       192.77612     -0.01868604     0.162         -0.03737208   
    325000   246.52512     -44435.598     -50454.71       13.257501     -0.003253867    0.1625        -0.006507734  
    326000   245.75144     -44180.521     -50180.742     -90.473058      0.0089688675   0.163          0.017937735  
    327000   245.25673     -44314.938     -50303.081      201.90305     -0.021182735    0.1635        -0.042365471  
    328000   246.37698     -44135.907     -50151.402     -148.36414      0.01133576     0.164          0.022671521  
    329000   246.85669     -44441.367     -50468.575     -136.94176      0.013981264    0.1645         0.027962527  
    330000   240.35015     -44273.942     -50142.287     -84.721103      0.007525635    0.165          0.01505127   
    331000   246.50478     -44234.902     -50253.517      205.82637     -0.01812115     0.1655        -0.036242301  
    332000   248.63545     -44230.987     -50301.624      204.50468     -0.022154763    0.166         -0.044309526  
    333000   246.75486     -44241.547     -50266.268     -405.85185      0.037964088    0.1665         0.075928177  
    334000   245.36976     -44260.982     -50251.885      35.410609     -0.006271873    0.167         -0.012543746  
    335000   247.73906     -44401.378     -50450.13       64.077822     -0.0063639672   0.1675        -0.012727934  
    336000   247.78634     -44222.491     -50272.396      197.52502     -0.018655154    0.168         -0.037310308  
    337000   244.96443     -44475.025     -50456.032      61.313733     -0.0048483157   0.1685        -0.0096966314 
    338000   246.42545     -44379.486     -50396.164      6.4329016      0.00018524621  0.169          0.00037049241
    339000   246.98885     -44329.582     -50360.016      132.09138     -0.013762518    0.1695        -0.027525036  
    340000   246.40448     -44278.016     -50294.182     -617.94322      0.060767893    0.17           0.12153579   
    341000   242.58223     -44492.484     -50415.327      43.077864     -0.0080164863   0.1705        -0.016032973  
    342000   248.12156     -44275.704     -50333.794     -301.95338      0.033313202    0.171          0.066626403  
    343000   244.89331     -44308.745     -50288.015      336.02833     -0.033828488    0.1715        -0.067656976  
    344000   243.58914     -44476.129     -50423.556     -78.384389      0.0094665958   0.172          0.018933192  
    345000   244.17915     -44431.45      -50393.283      385.09721     -0.035771697    0.1725        -0.071543394  
    346000   247.02115     -44412.198     -50443.421      45.630733     -0.0027722594   0.173         -0.0055445188 
    347000   246.54457     -44218.402     -50237.988     -93.124023      0.0091238895   0.1735         0.018247779  
    348000   247.32317     -44244.489     -50283.086     -8.1752164      0.0055309563   0.174          0.011061913  
    349000   244.25181     -44312.574     -50276.181      303.58734     -0.027360975    0.1745        -0.05472195   
    350000   243.03846     -44414.558     -50348.54      -112.07887      0.011955196    0.175          0.023910392  
    351000   248.45695     -44154.945     -50221.224     -461.41802      0.044019763    0.1755         0.088039526  
    352000   246.38251     -44228.05      -50243.679     -120.42042      0.0096568395   0.176          0.019313679  
    353000   246.12029     -44217.68      -50226.907      78.132259     -0.0092835731   0.1765        -0.018567146  
    354000   245.76665     -44325.839     -50326.432      74.874119     -0.0086315205   0.177         -0.017263041  
    355000   246.40983     -44197.51      -50213.807     -40.85926       0.0018957034   0.1775         0.0037914069 
    356000   248.12365     -44161.896     -50220.038     -37.117132     -0.00033392278  0.178         -0.00066784556
    357000   244.65527     -44344.48      -50317.938      194.94546     -0.022163601    0.1785        -0.044327203  
    358000   246.87789     -44141.608     -50169.333      132.01304     -0.0092272222   0.179         -0.018454444  
    359000   241.31803     -44468.546     -50360.523     -33.72355       0.0051428153   0.1795         0.010285631  
    360000   245.91877     -44233.976     -50238.283     -201.48087      0.019916704    0.18           0.039833409  
    361000   247.25828     -44381.316     -50418.329      9.6125922     -0.0054114564   0.1805        -0.010822913  
    362000   251.65792     -44237.842     -50382.275      21.335113      1.6895589e-05  0.181          3.3791178e-05
    363000   246.506       -44420.835     -50439.48      -377.65042      0.039380962    0.1815         0.078761924  
    364000   246.25347     -44367.221     -50379.7       -62.894978      0.0071655202   0.182          0.01433104   
    365000   244.53339     -44384.093     -50354.575     -14.503908     -0.0015919372   0.1825        -0.0031838744 
    366000   245.5628      -44344.023     -50339.639     -368.80083      0.035043429    0.183          0.070086858  
    367000   243.3036      -44440.042     -50380.498     -162.7647       0.01409295     0.1835         0.028185901  
    368000   250.40364     -44243.874     -50357.683     -177.17121      0.018939046    0.184          0.037878092  
    369000   246.90613     -44131.81      -50160.225      141.45601     -0.014276431    0.1845        -0.028552861  
    370000   244.43283     -44425.009     -50393.036     -207.61857      0.020008234    0.185          0.040016467  
    371000   242.2809      -44458.503     -50373.989     -96.596028      0.0079107371   0.1855         0.015821474  
    372000   244.93009     -44247.618     -50227.785     -318.10392      0.032863933    0.186          0.065727866  
    373000   247.07408     -44320.331     -50352.846     -211.97231      0.019379578    0.1865         0.038759155  
    374000   247.35654     -44469.218     -50508.63      -63.265198      0.0061733423   0.187          0.012346685  
    375000   247.01275     -44219.286     -50250.303     -28.483934      0.0036216328   0.1875         0.0072432655 
    376000   246.07146     -44308.13      -50316.166      113.89787     -0.012375975    0.188         -0.02475195   
    377000   246.62217     -44376.314     -50397.795      124.57225     -0.0085014092   0.1885        -0.017002818  
    378000   246.74625     -44189.929     -50214.44       23.039398     -0.0050028427   0.189         -0.010005685  
    379000   245.32425     -44504.677     -50494.468      127.00154     -0.013494826    0.1895        -0.026989652  
    380000   251.04909     -44155.234     -50284.803      131.25635     -0.010558727    0.19          -0.021117453  
    381000   245.85804     -44297.783     -50300.608      283.22299     -0.031613838    0.1905        -0.063227676  
    382000   246.96068     -44251.851     -50281.597     -94.836679      0.012786243    0.191          0.025572486  
    383000   245.12805     -44291.729     -50276.73       371.5093      -0.039024124    0.1915        -0.078048249  
    384000   246.87785     -44139.167     -50166.891     -163.1103       0.016756105    0.192          0.033512209  
    385000   244.21564     -44206.472     -50169.196      199.38438     -0.020381151    0.1925        -0.040762301  
    386000   252.45373     -44120.76      -50284.623     -91.360311      0.006643155    0.193          0.01328631   
    387000   245.10389     -44352.134     -50336.546      46.888261     -0.0041663338   0.1935        -0.0083326676 
    388000   244.37375     -44327.207     -50293.791     -179.39849      0.018225782    0.194          0.036451564  
    389000   250.86136     -43962.394     -50087.378     -23.464731      2.958633e-05   0.1945         5.917266e-05 
    390000   246.62161     -44218.944     -50240.412      35.386878     -0.0028397755   0.195         -0.0056795511 
    391000   243.19353     -44337.946     -50275.714     -251.12703      0.024754787    0.1955         0.049509575  
    392000   244.66389     -44376.93      -50350.598     -296.63788      0.032222257    0.196          0.064444515  
    393000   248.21036     -44119.023     -50179.281     -246.50826      0.023983049    0.1965         0.047966099  
    394000   245.33922     -44384.997     -50375.154     -233.12025      0.022650146    0.197          0.045300293  
    395000   247.53461     -44345.657     -50389.416     -271.74873      0.027623965    0.1975         0.05524793   
    396000   241.92307     -44469.586     -50376.335      174.85456     -0.021563099    0.198         -0.043126199  
    397000   248.76835     -44206.869     -50280.751      159.64766     -0.02068857     0.1985        -0.041377141  
    398000   247.89781     -44332.042     -50384.669     -295.535        0.026174365    0.199          0.05234873   
    399000   245.9427      -44340.801     -50345.693      55.733316     -0.0077681701   0.1995        -0.01553634   
    400000   244.09951     -44434.019     -50393.907     -150.273        0.014074173    0.2            0.028148346  
Loop time of 451.128 on 56 procs for 100000 steps with 12288 atoms

Performance: 19.152 ns/day, 1.253 hours/ns, 221.667 timesteps/s, 2.724 Matom-step/s
99.8% CPU use with 56 MPI tasks x no OpenMP threads

MPI task timing breakdown:
Section |  min time  |  avg time  |  max time  |%varavg| %total
---------------------------------------------------------------
Pair    | 187.13     | 197.66     | 207.73     |  33.8 | 43.82
Bond    | 0.017517   | 0.027723   | 0.047509   |   3.1 |  0.01
Kspace  | 126.94     | 137.22     | 147.61     |  39.7 | 30.42
Neigh   | 21.64      | 21.654     | 21.669     |   0.1 |  4.80
Comm    | 15.103     | 15.945     | 16.964     |  11.5 |  3.53
Output  | 0.21979    | 0.39401    | 0.56135    |  16.1 |  0.09
Modify  | 58.35      | 65.46      | 76.186     |  51.8 | 14.51
Other   |            | 12.77      |            |       |  2.83

Nlocal:        219.429 ave         238 max         202 min
Histogram: 1 6 5 8 7 12 9 5 1 2
Nghost:        6917.52 ave        6970 max        6869 min
Histogram: 3 4 8 10 3 11 4 8 3 2
Neighs:        96050.9 ave      104939 max       88528 min
Histogram: 2 8 4 8 8 12 7 3 3 1

Total # of neighbors = 5378849
Ave neighs/atom = 437.73185
Ave special neighs/atom = 2
Neighbor list builds = 1868
Dangerous builds = 0
kspace_style pppm/tip4p 1.0e-5
next nloop
jump SELF loop_start
run 100000 # 100ps
PPPM initialization ...
  extracting TIP4P info from pair style
  using 12-bit tables for long-range coulomb
  G vector (1/distance) = 0.32815664
  grid = 50 60 50
  stencil order = 5
  estimated absolute RMS force accuracy = 0.0035802102
  estimated relative force accuracy = 1.0781697e-05
  using double precision KISS FFT
  3d grid and FFT values/proc = 13056 3200
Generated 0 of 1 mixed pair_coeff terms from geometric mixing rule
Per MPI rank memory allocation (min/avg/max) = 10.99 | 11.06 | 11.13 Mbytes
   Step          Temp          TotEng         PotEng          Pxy           v_sxy         v_strain     v_viscosity  
    400000   244.09934     -44434.017     -50393.902     -149.37841      0.01398191     0.2            0.02796382   
    401000   249.09868     -44300.846     -50382.793     -379.56753      0.037588841    0.2005         0.075177681  
    402000   243.48988     -44396.103     -50341.107      175.97644     -0.01928181     0.201         -0.038563619  
    403000   249.22042     -44276.719     -50361.639     -63.931804      0.0059208724   0.2015         0.011841745  
    404000   244.96533     -44421.599     -50402.627      36.819507     -0.0020115509   0.202         -0.0040231018 
    405000   244.30523     -44426.006     -50390.917      272.16361     -0.027622675    0.2025        -0.05524535   
    406000   245.32793     -44467.33      -50457.212      134.33907     -0.012730746    0.203         -0.025461493  
    407000   251.54057     -44159.259     -50300.827     -147.56663      0.01905757     0.2035         0.038115141  
    408000   243.87119     -44439.813     -50394.127     -154.55113      0.013914226    0.204          0.027828453  
    409000   244.86342     -44374.742     -50353.282     -102.04909      0.0079805048   0.2045         0.01596101   
    410000   245.11751     -44401.164     -50385.908      64.500561     -0.0043928557   0.205         -0.0087857113 
    411000   243.06224     -44410.986     -50345.549      316.9107      -0.027647399    0.2055        -0.055294799  
    412000   247.27391     -44231.712     -50269.105      399.66419     -0.037775208    0.206         -0.075550415  
    413000   246.08213     -44436.278     -50444.574     -304.74999      0.027452712    0.2065         0.054905424  
    414000   247.42453     -44376.34      -50417.412     -20.959218      0.0016725074   0.207          0.0033450148 
    415000   245.59025     -44156.508     -50152.794      9.5325793      0.0032089896   0.2075         0.0064179792 
    416000   244.50044     -44415.73      -50385.407     -111.97631      0.0055040875   0.208          0.011008175  
    417000   247.84209     -44383.344     -50434.611     -60.754958      0.0055877487   0.2085         0.011175497  
    418000   248.29789     -44269.645     -50332.04       130.90587     -0.011672434    0.209         -0.023344868  
    419000   244.18981     -44231.806     -50193.899     -210.98793      0.020767778    0.2095         0.041535555  
    420000   244.89558     -44444.975     -50424.3        224.46254     -0.024396652    0.21          -0.048793305  
    421000   247.60276     -44381.2       -50426.623      158.25603     -0.01683009     0.2105        -0.03366018   
    422000   245.13677     -44369.843     -50355.057     -107.77379      0.0063552431   0.211          0.012710486  
    423000   247.89529     -44228.597     -50281.163      14.58766      -0.0057148922   0.2115        -0.011429784  
    424000   244.27003     -44485.358     -50449.41       76.112702     -0.0079389456   0.212         -0.015877891  
    425000   246.79353     -44219.114     -50244.779      22.5847       -0.00022447841  0.2125        -0.00044895682
    426000   246.77723     -44300.885     -50326.152      21.814181     -0.0041449653   0.213         -0.0082899305 
    427000   245.27929     -44418.951     -50407.645     -111.35745      0.0099373606   0.2135         0.019874721  
    428000   248.26107     -44375.855     -50437.351      179.00944     -0.020125374    0.214         -0.040250747  
    429000   245.43159     -44497.876     -50490.289     -85.92157       0.006789735    0.2145         0.01357947   
    430000   246.07879     -44445.416     -50453.631     -195.84772      0.019389714    0.215          0.038779427  
    431000   247.5361      -44226.817     -50270.613     -66.5173        0.0082237101   0.2155         0.01644742   
    432000   246.48841     -44502.587     -50520.803      107.88631     -0.013872803    0.216         -0.027745606  
    433000   245.49445     -44553.172     -50547.119     -89.158137      0.010859831    0.2165         0.021719661  
    434000   244.03961     -44371.702     -50330.128     -16.335631      0.0020799076   0.217          0.0041598153 
    435000   250.63819     -44283.087     -50402.622      106.42808     -0.0080375775   0.2175        -0.016075155  
    436000   243.6247      -44317.944     -50266.24      -63.253476      0.0039900312   0.218          0.0079800623 
    437000   246.32434     -44210.366     -50224.575     -31.980357      0.0025804171   0.2185         0.0051608343 
    438000   244.21003     -44468.812     -50431.399      141.33124     -0.016062469    0.219         -0.032124938  
    439000   246.58491     -44200.682     -50221.253      313.88393     -0.032265586    0.2195        -0.064531173  
    440000   243.83088     -44483.901     -50437.23       263.55929     -0.028420552    0.22          -0.056841105  
    441000   248.31724     -44228.109     -50290.977      286.98264     -0.029616656    0.2205        -0.059233313  
    442000   245.98655     -44294.972     -50300.934     -10.061574     -0.0018194368   0.221         -0.0036388737 
    443000   251.14332     -44269.218     -50401.086     -246.13001      0.023744233    0.2215         0.047488465  
    444000   244.15129     -44345.133     -50306.286     -121.50403      0.010477918    0.222          0.020955837  
    445000   245.77108     -44261.064     -50261.765      81.36908      -0.0094593393   0.2225        -0.018918679  
    446000   247.24444     -44269.263     -50305.937      292.4166      -0.030143677    0.223         -0.060287354  
    447000   247.44038     -44355.327     -50396.786     -38.126672      0.0032210967   0.2235         0.0064421934 
    448000   247.5308      -44232.837     -50276.503      26.049173      1.783977e-05   0.224          3.5679539e-05
    449000   246.24433     -44473.047     -50485.303     -126.64455      0.010707909    0.2245         0.021415818  
    450000   247.84052     -44286.095     -50337.324     -112.8898       0.012751449    0.225          0.025502899  
    451000   245.67361     -44497.247     -50495.569      44.188107     -0.0036731217   0.2255        -0.0073462434 
    452000   242.59417     -44288.091     -50211.225      195.91291     -0.019713726    0.226         -0.039427452  
    453000   241.66004     -44632.813     -50533.14       47.119155     -0.0054222558   0.2265        -0.010844512  
    454000   246.21408     -44409.719     -50421.237     -359.33396      0.033824967    0.227          0.067649934  
    455000   241.85506     -44343.433     -50248.521     -59.34106       0.0065731377   0.2275         0.013146275  
    456000   245.73973     -44512.47      -50512.406     -155.81257      0.014536036    0.228          0.029072071  
    457000   244.83148     -44286.568     -50264.328      239.04746     -0.023514547    0.2285        -0.047029094  
    458000   246.24287     -44152.217     -50164.437     -53.694218      0.0046273829   0.229          0.0092547658 
    459000   244.11169     -44307.781     -50267.967      163.81084     -0.015131375    0.2295        -0.030262751  
    460000   247.008       -44141.712     -50172.614      207.94382     -0.022271958    0.23          -0.044543916  
    461000   248.59155     -44168.792     -50238.358      71.405632     -0.0092609808   0.2305        -0.018521962  
    462000   247.74191     -44305.35      -50354.17       179.8231      -0.020778795    0.231         -0.04155759   
    463000   244.15835     -44380.698     -50342.023     -140.21384      0.013592694    0.2315         0.027185388  
    464000   244.87914     -44257.112     -50236.036      148.46221     -0.014341155    0.232         -0.028682311  
    465000   244.66177     -44308.086     -50281.703     -79.535918      0.0059924428   0.2325         0.011984886  
    466000   247.81864     -44410.779     -50461.473     -276.68737      0.032306995    0.233          0.06461399   
    467000   245.89415     -44349.071     -50352.777     -221.14054      0.019428993    0.2335         0.038857986  
    468000   245.31445     -44294.903     -50284.455     -168.8116       0.013946267    0.234          0.027892534  
    469000   248.33292     -44171.082     -50234.332     -377.48734      0.037543702    0.2345         0.075087403  
    470000   245.40216     -44341.848     -50333.542     -246.82135      0.026348129    0.235          0.052696259  
    471000   248.01983     -44296.779     -50352.386     -23.697549      0.0026709425   0.2355         0.005341885  
    472000   246.8143      -44380.233     -50406.406      139.51109     -0.011416782    0.236         -0.022833564  
    473000   244.57942     -44376.433     -50348.039      116.89423     -0.011977472    0.2365        -0.023954944  
    474000   245.83791     -44413.554     -50415.887      203.02429     -0.02126942     0.237         -0.04253884   
    475000   246.63858     -44246.788     -50268.67      -263.20837      0.025474762    0.2375         0.050949525  
    476000   248.80298     -44227.086     -50301.814     -282.51816      0.029704853    0.238          0.059409706  
    477000   246.84642     -44390.716     -50417.672     -257.73619      0.024650966    0.2385         0.049301931  
    478000   244.35135     -44417.277     -50383.314     -86.144258      0.0098710348   0.239          0.01974207   
    479000   247.93068     -44451.928     -50505.358     -136.03819      0.010833407    0.2395         0.021666813  
    480000   246.13865     -44278.364     -50288.04      -50.347425      0.0032504635   0.24           0.0065009269 
    481000   244.69857     -44281.837     -50256.352     -27.585277      0.0011780896   0.2405         0.0023561793 
    482000   244.4121      -44333.68      -50301.201      321.53123     -0.027790477    0.241         -0.055580955  
    483000   248.34874     -44369.114     -50432.751     -94.914575      0.0078225314   0.2415         0.015645063  
    484000   246.05049     -44245.186     -50252.709     -369.74056      0.038260585    0.242          0.07652117   
    485000   246.78165     -44247.993     -50273.368     -140.67055      0.011515885    0.2425         0.023031771  
    486000   244.0949      -44382.662     -50342.438     -283.76158      0.024281294    0.243          0.048562588  
    487000   245.73876     -44415.076     -50414.988     -173.0784       0.015431358    0.2435         0.030862717  
    488000   245.32322     -44341.26      -50331.026      316.74387     -0.035035856    0.244         -0.070071711  
    489000   249.84945     -44331.618     -50431.896     -219.44346      0.021520741    0.2445         0.043041481  
    490000   247.005       -44238.15      -50268.979     -115.17232      0.0071205076   0.245          0.014241015  
    491000   243.29765     -44278.893     -50219.204     -216.21392      0.01758313     0.2455         0.035166259  
    492000   241.91704     -44333.347     -50239.949     -144.4264       0.015041561    0.246          0.030083121  
    493000   246.39519     -44220.661     -50236.6        183.15263     -0.017625612    0.2465        -0.035251224  
    494000   246.32283     -44388.734     -50402.906      167.19613     -0.016643236    0.247         -0.033286472  
    495000   247.76766     -44303.451     -50352.9       -38.011826      0.00085609998  0.2475         0.0017122    
    496000   246.83644     -44160.196     -50186.909     -79.308848      0.0067974312   0.248          0.013594862  
    497000   242.26481     -44403.281     -50318.374     -87.187088      0.0053153008   0.2485         0.010630602  
    498000   251.08504     -44123.55      -50253.996      309.62441     -0.02749363     0.249         -0.054987261  
    499000   247.18214     -44211.644     -50246.797      70.955622     -0.010333897    0.2495        -0.020667795  
    500000   250.48778     -44301.281     -50417.145     -173.8259       0.015315181    0.25           0.030630362  
Loop time of 449.726 on 56 procs for 100000 steps with 12288 atoms

Performance: 19.212 ns/day, 1.249 hours/ns, 222.357 timesteps/s, 2.732 Matom-step/s
99.8% CPU use with 56 MPI tasks x no OpenMP threads

MPI task timing breakdown:
Section |  min time  |  avg time  |  max time  |%varavg| %total
---------------------------------------------------------------
Pair    | 186.26     | 197.52     | 207.21     |  34.1 | 43.92
Bond    | 0.015153   | 0.02733    | 0.047092   |   3.3 |  0.01
Kspace  | 125.84     | 135.63     | 146.57     |  39.2 | 30.16
Neigh   | 21.702     | 21.714     | 21.727     |   0.1 |  4.83
Comm    | 15.106     | 16.015     | 17.383     |  14.9 |  3.56
Output  | 0.21961    | 0.39382    | 0.56122    |  16.1 |  0.09
Modify  | 58.716     | 65.502     | 76.372     |  51.9 | 14.56
Other   |            | 12.93      |            |       |  2.87

Nlocal:        219.429 ave         235 max         208 min
Histogram: 3 9 6 6 11 8 7 3 2 1
Nghost:        6962.71 ave        7053 max        6883 min
Histogram: 2 5 2 9 10 16 8 1 1 2
Neighs:        96081.2 ave      104505 max       90061 min
Histogram: 5 6 6 10 10 6 7 4 0 2

Total # of neighbors = 5380547
Ave neighs/atom = 437.87004
Ave special neighs/atom = 2
Neighbor list builds = 1866
Dangerous builds = 0
kspace_style pppm/tip4p 1.0e-5
next nloop
jump SELF loop_start
run 100000 # 100ps
PPPM initialization ...
  extracting TIP4P info from pair style
  using 12-bit tables for long-range coulomb
  G vector (1/distance) = 0.32881326
  grid = 50 64 50
  stencil order = 5
  estimated absolute RMS force accuracy = 0.003443216
  estimated relative force accuracy = 1.0369143e-05
  using double precision KISS FFT
  3d grid and FFT values/proc = 13600 3200
Generated 0 of 1 mixed pair_coeff terms from geometric mixing rule
Per MPI rank memory allocation (min/avg/max) = 11.03 | 11.1 | 11.15 Mbytes
   Step          Temp          TotEng         PotEng          Pxy           v_sxy         v_strain     v_viscosity  
    500000   250.48763     -44301.288     -50417.148     -172.74227      0.015203825    0.25           0.03040765   
    501000   245.24412     -44262.462     -50250.298     -1.7673522      0.0026188739   0.2505         0.0052377477 
    502000   243.07375     -44360.254     -50295.097     -196.00751      0.021170271    0.251          0.042340543  
    503000   244.90574     -44258.35      -50237.923     -436.85254      0.045188983    0.2515         0.090377966  
    504000   246.03952     -44349.601     -50356.856      16.093018     -0.00078357534  0.252         -0.0015671507 
    505000   247.68407     -44181.018     -50228.427     -277.36978      0.028947517    0.2525         0.057895033  
    506000   242.12919     -44397.061     -50308.843      259.44307     -0.025978643    0.253         -0.051957287  
    507000   244.61671     -44197.681     -50170.198     -145.82251      0.014151843    0.2535         0.028303685  
    508000   246.39097     -44170.994     -50186.83      -286.95148      0.029483613    0.254          0.058967226  
    509000   247.08856     -44180.39      -50213.258     -86.474332      0.00884891     0.2545         0.01769782   
    510000   244.44326     -44275.084     -50243.366      60.307697     -0.0070069418   0.255         -0.014013884  
    511000   249.71522     -44128.181     -50225.181      146.68361     -0.013497855    0.2555        -0.026995711  
    512000   243.08693     -44145.927     -50081.092      512.42033     -0.048275496    0.256         -0.096550991  
    513000   246.79856     -44182.201     -50207.989     -412.75667      0.041084308    0.2565         0.082168616  
    514000   245.33996     -44154.784     -50144.959      74.102581     -0.0085694972   0.257         -0.017138994  
    515000   244.81909     -44267.807     -50245.265      207.50436     -0.020682785    0.2575        -0.041365571  
    516000   249.08802     -44205.223     -50286.91      -240.95378      0.019626346    0.258          0.039252692  
    517000   247.47674     -44330.573     -50372.919     -57.739284      0.0048606115   0.2585         0.0097212229 
    518000   245.83258     -44277.319     -50279.522     -3.5322883     -0.0026034838   0.259         -0.0052069676 
    519000   246.60208     -44324.081     -50345.072     -29.096439      0.0023752538   0.2595         0.0047505075 
    520000   246.9559      -44234.239     -50263.869     -79.978169      0.0086485837   0.26           0.017297167  
    521000   244.1911      -44297.922     -50260.046      16.538046     -0.0041538213   0.2605        -0.0083076427 
    522000   249.27494     -44081.725     -50167.976     -184.58352      0.017580155    0.261          0.035160309  
    523000   244.45832     -44326.712     -50295.361      101.94779     -0.0076486736   0.2615        -0.015297347  
    524000   247.12508     -44155.327     -50189.087     -142.71771      0.010039097    0.262          0.020078194  
    525000   246.61317     -44246.064     -50267.326      49.025424     -0.0064819439   0.2625        -0.012963888  
    526000   244.68086     -44472.016     -50446.099      0.084482295    0.00048085064  0.263          0.00096170128
    527000   247.626       -44246.56      -50292.551     -1.3692678     -0.0043907525   0.2635        -0.008781505  
    528000   251.32288     -44125.86      -50262.113     -94.935231      0.0098063117   0.264          0.019612623  
    529000   248.43869     -44330.946     -50396.779      71.512797     -0.0094826174   0.2645        -0.018965235  
    530000   244.50498     -44222.711     -50192.5        47.956299     -0.0024939437   0.265         -0.0049878874 
    531000   247.7307      -44278.313     -50326.86       26.979133     -0.0016900643   0.2655        -0.0033801285 
    532000   246.25975     -44311.51      -50324.142     -302.40873      0.02550727     0.266          0.05101454   
    533000   249.42745     -44246.534     -50336.508      217.34745     -0.025701959    0.2665        -0.051403918  
    534000   245.29825     -44300.806     -50289.962      34.268756     -0.0031954586   0.267         -0.0063909171 
    535000   246.78163     -44111.323     -50136.698     -206.30384      0.018829493    0.2675         0.037658986  
    536000   246.63348     -44183.131     -50204.889     -120.98852      0.0093173814   0.268          0.018634763  
    537000   242.48151     -44169.006     -50089.39       88.309799     -0.010990949    0.2685        -0.021981898  
    538000   248.06172     -44329.341     -50385.97      -2.2971899      0.00026903687  0.269          0.00053807373
    539000   248.81935     -44218.445     -50293.573      199.12006     -0.019744344    0.2695        -0.039488688  
    540000   245.47307     -44305.458     -50298.883     -55.515783      0.0091081123   0.27           0.018216225  
    541000   247.02047     -44246.878     -50278.084     -60.082508      0.0043935526   0.2705         0.0087871052 
    542000   249.03183     -44227.076     -50307.391      1.4568517     -0.0012038541   0.271         -0.0024077081 
[...]
   1862000   244.11506     -44346.745     -50307.013     -164.07016      0.015156565    0.931          0.030313131  
   1863000   246.78289     -44244.941     -50270.346     -116.96142      0.0093434275   0.9315         0.018686855  
   1864000   244.24833     -44268.808     -50232.33       178.33083     -0.019457853    0.932         -0.038915706  
   1865000   248.8081      -44113.953     -50188.805     -3.9910238      0.0024123538   0.9325         0.0048247076 
   1866000   245.02863     -44332.495     -50315.069      191.38624     -0.021107347    0.933         -0.042214694  
   1867000   248.48649     -44185.085     -50252.085     -238.3508       0.025545899    0.9335         0.051091797  
   1868000   246.15673     -44251.145     -50261.262      282.76242     -0.027800407    0.934         -0.055600814  
   1869000   247.15061     -44173.638     -50208.022     -251.97306      0.027240171    0.9345         0.054480341  
   1870000   243.65158     -44264.829     -50213.781     -167.82216      0.019376286    0.935          0.038752573  
   1871000   248.95442     -44135.624     -50214.049      203.66435     -0.019219819    0.9355        -0.038439637  
   1872000   245.10321     -44141.391     -50125.785      395.38604     -0.040642669    0.936         -0.081285338  
   1873000   247.46397     -44180.753     -50222.787      119.6357      -0.011586892    0.9365        -0.023173784  
   1874000   246.21554     -44162.451     -50174.004      152.94587     -0.014315397    0.937         -0.028630795  
   1875000   245.10884     -44301.141     -50285.673     -216.35938      0.016464877    0.9375         0.032929754  
   1876000   242.2888      -44406.011     -50321.689     -37.259952      0.0031666098   0.938          0.0063332196 
   1877000   247.11098     -44287.101     -50320.517     -226.99446      0.02326681     0.9385         0.046533619  
   1878000   248.81084     -44350.838     -50425.758     -134.19628      0.015128481    0.939          0.030256962  
   1879000   250.11555     -44326.227     -50433.002     -19.066285      0.0037253022   0.9395         0.0074506044 
   1880000   245.14569     -44316.254     -50301.686     -316.76192      0.034366639    0.94           0.068733278  
   1881000   245.10209     -44193.941     -50178.309     -159.58849      0.015166203    0.9405         0.030332405  
   1882000   248.35911     -44152.352     -50216.242     -156.11558      0.015595078    0.941          0.031190157  
   1883000   244.75506     -44299.014     -50274.908     -180.22283      0.019220015    0.9415         0.03844003   
   1884000   251.312       -44065.257     -50201.244      42.755861     -0.004722026    0.942         -0.0094440521 
   1885000   246.38782     -44115.876     -50131.635     -192.50164      0.02227385     0.9425         0.0445477    
   1886000   241.86313     -44346.774     -50252.06       101.14415     -0.0090255346   0.943         -0.018051069  
   1887000   242.00154     -44262.672     -50171.337      141.77036     -0.015245504    0.9435        -0.030491008  
   1888000   247.58415     -44056.728     -50101.697      76.482802     -0.0037386229   0.944         -0.0074772459 
   1889000   245.06461     -44230.517     -50213.97      -238.99999      0.02429385     0.9445         0.0485877    
   1890000   248.02145     -44194.61      -50250.256     -141.7199       0.016087495    0.945          0.03217499   
   1891000   248.7462      -44105.971     -50179.312      76.505239     -0.0091028908   0.9455        -0.018205782  
   1892000   248.41699     -44165.402     -50230.705     -116.08479      0.012900586    0.946          0.025801172  
   1893000   245.56638     -44352.81      -50348.514     -19.106302      0.00088014175  0.9465         0.0017602835 
   1894000   250.71393     -44215.631     -50337.016     -24.006399      0.0024155175   0.947          0.0048310351 
   1895000   247.024       -44181.03      -50212.322     -55.631495      0.0046702314   0.9475         0.0093404628 
   1896000   246.3704      -44222.316     -50237.65       247.30732     -0.028198915    0.948         -0.056397829  
   1897000   246.0811      -44067.69      -50075.96      -22.378807      0.0052366882   0.9485         0.010473376  
   1898000   242.65357     -44373.069     -50297.654     -72.84375       0.010548965    0.949          0.02109793   
   1899000   248.46085     -44186.984     -50253.358     -89.092397      0.0061960029   0.9495         0.012392006  
   1900000   244.64431     -44218.676     -50191.866     -58.079609      0.0062407798   0.95           0.01248156   
Loop time of 422.085 on 56 procs for 100000 steps with 12288 atoms

Performance: 20.470 ns/day, 1.172 hours/ns, 236.919 timesteps/s, 2.911 Matom-step/s
99.8% CPU use with 56 MPI tasks x no OpenMP threads

MPI task timing breakdown:
Section |  min time  |  avg time  |  max time  |%varavg| %total
---------------------------------------------------------------
Pair    | 183.03     | 192.51     | 198.47     |  24.8 | 45.61
Bond    | 0.017046   | 0.022632   | 0.04003    |   2.6 |  0.01
Kspace  | 116.66     | 122.26     | 130.87     |  30.2 | 28.97
Neigh   | 21.656     | 21.669     | 21.677     |   0.1 |  5.13
Comm    | 14.637     | 15.583     | 16.896     |  14.7 |  3.69
Output  | 0.22328    | 0.4008     | 0.57158    |  16.3 |  0.09
Modify  | 51.819     | 59.787     | 67.224     |  51.5 | 14.16
Other   |            | 9.853      |            |       |  2.33

Nlocal:        219.429 ave         247 max         205 min
Histogram: 5 5 12 18 4 7 3 1 0 1
Nghost:        6857.57 ave        6922 max        6785 min
Histogram: 2 0 3 8 14 12 7 3 5 2
Neighs:        96043.2 ave      110980 max       89080 min
Histogram: 5 7 18 10 10 3 2 0 0 1

Total # of neighbors = 5378419
Ave neighs/atom = 437.69686
Ave special neighs/atom = 2
Neighbor list builds = 1871
Dangerous builds = 0
kspace_style pppm/tip4p 1.0e-5
next nloop
jump SELF loop_start
run 100000 # 100ps
PPPM initialization ...
  extracting TIP4P info from pair style
  using 12-bit tables for long-range coulomb
  G vector (1/distance) = 0.33000328
  grid = 50 54 50
  stencil order = 5
  estimated absolute RMS force accuracy = 0.0032071594
  estimated relative force accuracy = 9.6582652e-06
  using double precision KISS FFT
  3d grid and FFT values/proc = 11968 2800
Generated 0 of 1 mixed pair_coeff terms from geometric mixing rule
Per MPI rank memory allocation (min/avg/max) = 10.96 | 11.07 | 11.16 Mbytes
   Step          Temp          TotEng         PotEng          Pxy           v_sxy         v_strain     v_viscosity  
   1900000   244.64431     -44218.672     -50191.863     -56.931779      0.0061241471   0.95           0.012248294  
   1901000   246.02889     -44189.524     -50196.52       167.8514      -0.016303432    0.9505        -0.032606864  
   1902000   247.88774     -44264.991     -50317.372      192.85528     -0.018655742    0.951         -0.037311485  
   1903000   244.83109     -44306.778     -50284.529     -289.41366      0.027098141    0.9515         0.054196282  
   1904000   243.48923     -44263.827     -50208.815     -18.67768       0.0066281606   0.952          0.013256321  
   1905000   245.06369     -44170.033     -50153.463     -341.48969      0.030216377    0.9525         0.060432754  
   1906000   250.69854     -44203.889     -50324.898      46.823794     -0.0074247961   0.953         -0.014849592  
   1907000   246.53199     -44361.059     -50380.339      152.35199     -0.015166207    0.9535        -0.030332414  
   1908000   248.16374     -44390.716     -50449.836     -68.870986      0.0086033848   0.954          0.01720677   
   1909000   243.98732     -44401.7       -50358.849     -52.052257      0.0017141187   0.9545         0.0034282374 
   1910000   247.10989     -44230.4       -50263.79      -34.002365      0.00069820102  0.955          0.001396402  
   1911000   246.84641     -44221.269     -50248.226     -117.94255      0.0081132849   0.9555         0.01622657   
   1912000   244.98117     -44212.331     -50193.746     -156.68798      0.016134595    0.956          0.03226919   
   1913000   244.67673     -44322.019     -50296.001      157.17288     -0.015170703    0.9565        -0.030341406  
   1914000   244.29661     -44355.242     -50319.943      164.82712     -0.016021963    0.957         -0.032043925  
   1915000   249.51841     -44124.741     -50216.936     -52.779561     -0.00072476052  0.9575        -0.001449521  
   1916000   249.97227     -44108.009     -50211.286     -99.668224      0.0072635064   0.958          0.014527013  
   1917000   246.71956     -44140.575     -50164.434      45.28257      -0.0021344326   0.9585        -0.0042688652 
   1918000   247.70237     -44193.693     -50241.548     -28.447684      0.00255545     0.959          0.0051108999 
   1919000   248.20233     -44162.539     -50222.602      37.155464     -0.0029275934   0.9595        -0.0058551869 
   1920000   244.53111     -44239.763     -50210.19       245.12446     -0.026763976    0.96          -0.053527952  
   1921000   247.17754     -44211.988     -50247.029     -57.249076      0.0032551837   0.9605         0.0065103673 
   1922000   245.21985     -44227.529     -50214.772     -128.17056      0.014060442    0.961          0.028120885  
   1923000   244.91516     -44157.152     -50136.956     -42.347333      0.0060653423   0.9615         0.012130685  
   1924000   245.65646     -44253.614     -50251.516      186.25826     -0.018760033    0.962         -0.037520067  
   1925000   247.03518     -44233.388     -50264.954      104.06158     -0.0080543304   0.9625        -0.016108661  
   1926000   248.35043     -44310.306     -50373.984     -50.074301      0.0033912074   0.963          0.0067824148 
   1927000   248.43126     -44300.737     -50366.389      294.76763     -0.027182615    0.9635        -0.05436523   
   1928000   246.44344     -44304.559     -50321.676     -210.8486       0.021678091    0.964          0.043356182  
   1929000   248.51883     -44140.475     -50208.265     -142.01721      0.014488171    0.9645         0.028976341  
   1930000   245.97678     -44450.938     -50456.662      49.571404     -0.0035662713   0.965         -0.0071325427 
   1931000   246.08217     -44262.07      -50270.367      38.212274     -0.0041304787   0.9655        -0.0082609575 
   1932000   247.46633     -44042.993     -50085.085      276.09893     -0.025266193    0.966         -0.050532385  
   1933000   245.18507     -44279.807     -50266.2       -109.14054      0.016400368    0.9665         0.032800736  
   1934000   247.3023      -44170.065     -50208.152      219.19855     -0.020306716    0.967         -0.040613433  
   1935000   250.86486     -44120.022     -50245.092      23.979011     -0.0032165143   0.9675        -0.0064330285 
   1936000   242.28024     -44443.007     -50358.477     -107.10066      0.012832447    0.968          0.025664894  
   1937000   243.94513     -44367.037     -50323.156     -261.7056       0.026490186    0.9685         0.052980372  
   1938000   246.62145     -44155.512     -50176.976      85.129266     -0.0072141099   0.969         -0.01442822   
   1939000   247.83569     -44344.452     -50395.563      203.39567     -0.020182114    0.9695        -0.040364228  
   1940000   248.69634     -44195.051     -50267.175     -50.042978      0.003786851    0.97           0.0075737019 
   1941000   245.71584     -44266.78      -50266.133     -1.1108798      0.00057163011  0.9705         0.0011432602 
   1942000   245.78578     -44410.015     -50411.075      68.414363     -0.0052255464   0.971         -0.010451093  
   1943000   248.29154     -44043.782     -50106.023      10.33535      -0.0052060965   0.9715        -0.010412193  
   1944000   238.82984     -44451.801     -50283.027      36.754563      0.0003698089   0.972          0.0007396178 
   1945000   246.55824     -44289.637     -50309.558     -32.412375      0.0024185614   0.9725         0.0048371227 
   1946000   247.46834     -44108.427     -50150.569      12.32402      -0.0024046787   0.973         -0.0048093574 
   1947000   245.17401     -44359.285     -50345.408      132.12338     -0.010551312    0.9735        -0.021102624  
   1948000   244.02523     -44362.93      -50321.005      182.98802     -0.017025469    0.974         -0.034050939  
   1949000   245.59057     -44165.533     -50161.827     -4.531675      -0.0029891072   0.9745        -0.0059782144 
   1950000   246.94341     -44242.189     -50271.514     -31.011608     -0.003115291    0.975         -0.006230582  
   1951000   249.12581     -44287.105     -50369.715     -51.848234      0.0071253124   0.9755         0.014250625  
   1952000   248.42915     -44057.44      -50123.04       91.312255     -0.00777747     0.976         -0.01555494   
   1953000   247.70997     -44102.043     -50150.084      367.15967     -0.037955279    0.9765        -0.075910557  
   1954000   244.8139      -44240.062     -50217.393     -39.979794      0.0052090814   0.977          0.010418163  
   1955000   245.78029     -44117.188     -50118.114      174.68759     -0.016003202    0.9775        -0.032006404  
   1956000   246.97435     -44178.186     -50208.266     -32.896844      0.0018435146   0.978          0.0036870293 
   1957000   245.93018     -44211.816     -50216.402     -139.87861      0.014974719    0.9785         0.029949438  
   1958000   246.02071     -44138.145     -50144.941      28.003568     -0.0022307623   0.979         -0.0044615247 
   1959000   248.34924     -44176.935     -50240.584     -45.04318       0.0036959611   0.9795         0.0073919222 
   1960000   243.82571     -44339.42      -50292.623     -339.20069      0.032494449    0.98           0.064988898  
   1961000   251.25375     -44104.886     -50239.451     -5.3401513     -0.00060725562  0.9805        -0.0012145112 
   1962000   243.71477     -44414.57      -50365.065     -49.251743      0.0060470818   0.981          0.012094164  
   1963000   241.75665     -44384.306     -50286.991      154.76488     -0.020664884    0.9815        -0.041329769  
   1964000   247.27873     -44142.502     -50180.014     -138.58145      0.016188708    0.982          0.032377416  
   1965000   246.77816     -44218.008     -50243.298      307.88417     -0.029586902    0.9825        -0.059173804  
   1966000   244.5049      -44333.416     -50303.203      619.53883     -0.064483164    0.983         -0.12896633   
   1967000   245.41726     -44282.211     -50274.274      319.31146     -0.031703184    0.9835        -0.063406367  
   1968000   245.40567     -44265.779     -50257.558      240.19648     -0.021920707    0.984         -0.043841415  
   1969000   244.6782      -44306.518     -50280.535      2.6214551      0.00052693682  0.9845         0.0010538736 
   1970000   246.92208     -44238.785     -50267.589      11.818344     -0.0043917095   0.985         -0.008783419  
   1971000   245.4974      -44038.871     -50032.89       18.83458      -0.00013916694  0.9855        -0.00027833388
   1972000   246.12829     -44225.794     -50235.217     -32.428333      0.004158431    0.986          0.0083168621 
   1973000   244.30251     -44174.976     -50139.821     -85.558624      0.011887394    0.9865         0.023774787  
   1974000   247.4263      -44209.945     -50251.059     -249.54188      0.024805409    0.987          0.049610818  
   1975000   251.54732     -44066.444     -50208.176      103.61375     -0.0066855742   0.9875        -0.013371148  
   1976000   243.8587      -44197.777     -50151.786      183.01145     -0.018189381    0.988         -0.036378762  
   1977000   247.46271     -44172.772     -50214.776     -56.524336      0.0028994707   0.9885         0.0057989414 
   1978000   244.22504     -44366.389     -50329.343     -143.37596      0.011167577    0.989          0.022335155  
   1979000   246.77386     -44252.381     -50277.566     -96.338249      0.010734963    0.9895         0.021469927  
   1980000   244.31223     -44223.573     -50188.655     -347.79793      0.033492617    0.99           0.066985233  
   1981000   244.35899     -44421.533     -50387.757     -231.37795      0.022373228    0.9905         0.044746456  
   1982000   240.35169     -44388.024     -50256.407      131.24847     -0.008218974    0.991         -0.016437948  
   1983000   245.2375      -44227.555     -50215.228     -98.76039       0.00575026     0.9915         0.01150052   
   1984000   244.3542      -44283.07      -50249.177     -38.68605       0.003528546    0.992          0.0070570919 
   1985000   248.79231     -44164.299     -50238.766      157.98863     -0.015657381    0.9925        -0.031314762  
   1986000   243.44333     -44362.841     -50306.708     -76.461717      0.0047228067   0.993          0.0094456135 
   1987000   247.92738     -44135.725     -50189.074     -114.48286      0.0093609455   0.9935         0.018721891  
   1988000   242.19798     -44321.717     -50235.178     -117.4323       0.016103094    0.994          0.032206187  
   1989000   247.59749     -44151.692     -50196.986      98.099753     -0.010450052    0.9945        -0.020900104  
   1990000   247.44059     -44146.078     -50187.542      202.64453     -0.021419633    0.995         -0.042839266  
   1991000   240.97318     -44309.25      -50192.806      114.58799     -0.0070113642   0.9955        -0.014022728  
   1992000   248.66919     -44124.583     -50196.044     -84.271066      0.0063804444   0.996          0.012760889  
   1993000   242.5763      -44375.855     -50298.553      72.801582     -0.0078310748   0.9965        -0.01566215   
   1994000   249.4963      -44154.149     -50245.805     -83.287338      0.012174867    0.997          0.024349734  
   1995000   244.26818     -44253.183     -50217.189      7.1811194      0.00016839604  0.9975         0.00033679207
   1996000   245.99074     -44173.701     -50179.765      273.1109      -0.028121744    0.998         -0.056243489  
   1997000   246.48266     -44167.951     -50186.026     -3.5201986     -0.0053602781   0.9985        -0.010720556  
   1998000   244.8867      -44157.982     -50137.091      241.15449     -0.026752712    0.999         -0.053505424  
   1999000   245.48303     -44243.781     -50237.449      169.62536     -0.019688268    0.9995        -0.039376535  
   2000000   252.40576     -44212.32      -50375.013     -75.182133      0.0071105971   1              0.014221194  
Loop time of 424.734 on 56 procs for 100000 steps with 12288 atoms

Performance: 20.342 ns/day, 1.180 hours/ns, 235.442 timesteps/s, 2.893 Matom-step/s
99.8% CPU use with 56 MPI tasks x no OpenMP threads

MPI task timing breakdown:
Section |  min time  |  avg time  |  max time  |%varavg| %total
---------------------------------------------------------------
Pair    | 184.68     | 193.38     | 202.69     |  26.4 | 45.53
Bond    | 0.016672   | 0.022515   | 0.038771   |   2.4 |  0.01
Kspace  | 115.28     | 123.22     | 132.08     |  32.7 | 29.01
Neigh   | 22.422     | 22.432     | 22.439     |   0.1 |  5.28
Comm    | 14.528     | 15.622     | 17.119     |  16.5 |  3.68
Output  | 0.22171    | 0.40016    | 0.56983    |  16.3 |  0.09
Modify  | 51.842     | 59.731     | 67.123     |  51.3 | 14.06
Other   |            | 9.924      |            |       |  2.34

Nlocal:        219.429 ave         235 max         200 min
Histogram: 2 1 2 7 11 7 11 8 5 2
Nghost:        6847.16 ave        6909 max        6790 min
Histogram: 3 2 8 6 15 6 6 4 4 2
Neighs:        96059.5 ave      104282 max       86056 min
Histogram: 1 2 1 7 10 11 12 9 2 1

Total # of neighbors = 5379331
Ave neighs/atom = 437.77108
Ave special neighs/atom = 2
Neighbor list builds = 1885
Dangerous builds = 0
kspace_style pppm/tip4p 1.0e-5
next nloop
jump SELF loop_start
# run ${Ttotal}
# variable nloop loop ${nloops}
# label loop_start
# run ${stepsPerReset}
# kspace_style pppm/tip4p 1.0e-5
# next nloop
# jump SELF loop_start
Total wall time: 2:31:11
