LAMMPS (22 Jul 2025 - Update 1)
units real
atom_style full
boundary p p p

# package intel 1 omp 2

pair_style lj/cut/tip4p/long 1 2 1 1 0.1546 9.5

bond_style zero
angle_style zero
pair_modify tail yes

read_data 4096_equilibrated_${T}.data
read_data 4096_equilibrated_246.data
Reading data file ...
  triclinic box = (0 0 0) to (49.79052 49.79052 49.79052) with tilt (0 0 0)
  2 by 4 by 7 MPI processor grid
  reading atoms ...
  12288 atoms
  reading velocities ...
  12288 velocities
  scanning bonds ...
  2 = max bonds/atom
  scanning angles ...
  1 = max angles/atom
  triclinic box = (0 0 0) to (49.79052 49.79052 49.79052) with tilt (0 0 0)
  2 by 4 by 7 MPI processor grid
  reading bonds ...
  8192 bonds
  reading angles ...
  4096 angles
Finding 1-2 1-3 1-4 neighbors ...
  special bond factors lj:    0        0        0       
  special bond factors coul:  0        0        0       
     2 = max # of 1-2 neighbors
     1 = max # of 1-3 neighbors
     1 = max # of 1-4 neighbors
     2 = max # of special neighbors
  special bonds CPU = 0.005 seconds
  read_data CPU = 0.167 seconds
# read_data equilibration_NVT_${T}.data
# replicate 2 2 2

print "Initial configuration loaded."
Initial configuration loaded.
reset_timestep 0
print "Applying shear rate: ${gamma}"
Applying shear rate: 2.5e-4
change_box all triclinic
Changing box ...
  triclinic box = (0 0 0) to (49.79052 49.79052 49.79052) with tilt (0 0 0)
kspace_style pppm/tip4p 1.0e-5

pair_coeff 1 1 0.18521 3.1589 #O-O
pair_coeff * 2 0.0 0.0

bond_coeff 1 0.9572 #O-H
angle_coeff 1 104.52 #H-O-H

group gH2O type 1 2
12288 atoms in group gH2O
group gO type 1
4096 atoms in group gO

neighbor 3.0 bin
neigh_modify delay 0 every 1 check yes

timestep 1.0
fix 1 gH2O shake 1.0e-4 100 0 b 1 a 1
Finding SHAKE clusters ...
       0 = # of size 2 clusters
       0 = # of size 3 clusters
       0 = # of size 4 clusters
    4096 = # of frozen angles
  find clusters CPU = 0.004 seconds

# # 系统弛豫到平衡态
# fix fnvt_equil all nvt temp ${T} ${T} 100.0
# thermo 1000
# thermo_style custom step temp etotal pe
# thermo_modify flush yes
# run 500000 # 500 ps
# unfix fnvt_equil
# write_data 4096_equilibrated_${T}.data

# 系统剪切变形

fix fdeform all deform 1 xy erate ${gamma} remap v
fix fdeform all deform 1 xy erate 2.5e-4 remap v
fix fnvt all nvt/sllod temp ${T} ${T} 100.0
fix fnvt all nvt/sllod temp 246 ${T} 100.0
fix fnvt all nvt/sllod temp 246 246 100.0

compute tilt all temp/deform

variable L0_x equal lx
variable L0_y equal ly
variable L0_z equal lz

compute p all pressure NULL virial
variable sxy equal -c_p[4] * 1.01325e-4  # convert to GPa


variable strainInc equal 0.01
variable dt equal 1.0e-15
variable gammaSI equal ${gamma}*1e15
variable gammaSI equal 2.5e-4*1e15
variable stepsPerReset equal ceil(${strainInc}/(${gammaSI}*${dt}))
variable stepsPerReset equal ceil(0.01/(${gammaSI}*${dt}))
variable stepsPerReset equal ceil(0.01/(250000000000*${dt}))
variable stepsPerReset equal ceil(0.01/(250000000000*1e-15))
print "Steps per reset: ${stepsPerReset}"
Steps per reset: 40

variable massAll equal mass(all)/6.022e23
variable volCm3 equal vol*1.0e-24
variable density_sys equal v_massAll/v_volCm3
variable tau_pa equal v_sxy * 1e9
variable gamma_s equal ${gamma} * 1e15
variable gamma_s equal 2.5e-4 * 1e15
variable viscosity equal v_tau_pa / v_gamma_s

variable strain equal step*${gammaSI}*${dt}
variable strain equal step*250000000000*${dt}
variable strain equal step*250000000000*1e-15

thermo 1000
thermo_style custom step temp etotal pe pxy v_sxy v_strain v_viscosity
thermo_modify flush yes

dump traj all custom 500 traj_${gamma}_${T}.lammpstrj id type xu yu zu vx vy vz # 0.5ps
dump traj all custom 500 traj_2.5e-4_${T}.lammpstrj id type xu yu zu vx vy vz 
dump traj all custom 500 traj_2.5e-4_246.lammpstrj id type xu yu zu vx vy vz 
dump_modify traj sort id
fix stress all ave/time 500 1 500 v_strain v_sxy file stress_${gamma}_${T}.data  # 每0.5ps输出一次应力和应变
fix stress all ave/time 500 1 500 v_strain v_sxy file stress_2.5e-4_${T}.data  
fix stress all ave/time 500 1 500 v_strain v_sxy file stress_2.5e-4_246.data  

# compute peratom all stress/atom NULL
# dump stress gO custom 5000 stress_${gamma}_${T}.lammpstrj id type c_peratom[1] c_peratom[2] c_peratom[3] c_peratom[4] c_peratom[5] c_peratom[6]
# dump_modify stress sort id

variable Ttotal equal 2000000 # 2.0 ns
variable nloops equal ceil(${Ttotal}/(10000))
variable nloops equal ceil(2000000/(10000))
print "Total loops: ${nloops}"
Total loops: 200

variable nloop loop ${nloops}
variable nloop loop 200
label loop_start
run 10000 # 10ps
PPPM initialization ...
  extracting TIP4P info from pair style
  using 12-bit tables for long-range coulomb
  G vector (1/distance) = 0.32815664
  grid = 50 50 50
  stencil order = 5
  estimated absolute RMS force accuracy = 0.0035802102
  estimated relative force accuracy = 1.0781697e-05
  using double precision KISS FFT
  3d grid and FFT values/proc = 11424 2800
WARNING: Communication cutoff 0 is shorter than a bond length based estimate of 4.4358. This may lead to errors. (../comm.cpp:743)
WARNING: Increasing communication cutoff to 13.6118 for TIP4P pair style (../pair_lj_cut_tip4p_long.cpp:497)
Generated 0 of 1 mixed pair_coeff terms from geometric mixing rule
Neighbor list info ...
  update: every = 1 steps, delay = 0 steps, check = yes
  max neighbors/atom: 2000, page size: 100000
  master list distance cutoff = 12.8092
  ghost atom cutoff = 13.6118
  binsize = 6.4046, bins = 8 8 8
  1 neighbor lists, perpetual/occasional/extra = 1 0 0
  (1) pair lj/cut/tip4p/long, perpetual
      attributes: half, newton on
      pair build: half/bin/newton/tri
      stencil: half/bin/3d/tri
      bin: standard
Per MPI rank memory allocation (min/avg/max) = 9.2 | 9.373 | 9.718 Mbytes
   Step          Temp          TotEng         PotEng          Pxy           v_sxy         v_strain     v_viscosity  
         0   245.46957     -44327.561     -50320.901      139.5099      -0.016153381    0             -6.4613526e-05
      1000   245.84668     -45932.653     -51935.2       -3147.7205      0.31695553     0.25           0.0012678221 
      2000   252.08492     -44060.452     -50215.311     -3166.1019      0.31546287     0.5            0.0012618515 
      3000   275.39654     -42746.083     -49470.114     -2939.7154      0.2945081      0.75           0.0011780324 
      4000   282.99902     -42621.183     -49530.834     -2592.8501      0.26134077     1              0.0010453631 
      5000   296.79501     -42002.973     -49249.466     -2434.7231      0.2404775      1.25           0.00096191   
      6000   301.86633     -41740.496     -49110.809     -2730.8898      0.26801063     1.5            0.0010720425 
      7000   316.15308     -41208.005     -48927.14      -2506.4633      0.24839053     1.75           0.00099356211
      8000   324.94577     -41067.557     -49001.372     -2551.369       0.25680813     2              0.0010272325 
      9000   334.26386     -40636.919     -48798.243     -2353.4918      0.23296923     2.25           0.00093187694
     10000   336.62683     -40490.613     -48709.631     -2158.4456      0.21499757     2.5            0.00085999029
Loop time of 44.7884 on 56 procs for 10000 steps with 12288 atoms

Performance: 19.291 ns/day, 1.244 hours/ns, 223.272 timesteps/s, 2.744 Matom-step/s
99.7% CPU use with 56 MPI tasks x no OpenMP threads

MPI task timing breakdown:
Section |  min time  |  avg time  |  max time  |%varavg| %total
---------------------------------------------------------------
Pair    | 19.097     | 20.055     | 20.74      |   9.4 | 44.78
Bond    | 0.0015454  | 0.0027245  | 0.0036312  |   0.8 |  0.01
Kspace  | 11.313     | 12.041     | 13.028     |  12.3 | 26.88
Neigh   | 4.0414     | 4.0586     | 4.0625     |   0.3 |  9.06
Comm    | 1.5549     | 1.6663     | 1.7827     |   4.1 |  3.72
Output  | 0.024811   | 0.042282   | 0.059356   |   5.0 |  0.09
Modify  | 5.1126     | 5.6372     | 6.6485     |  14.6 | 12.59
Other   |            | 1.286      |            |       |  2.87

Nlocal:        219.429 ave         241 max         203 min
Histogram: 4 7 6 9 6 11 4 7 0 2
Nghost:        7266.68 ave        7330 max        7199 min
Histogram: 5 1 4 10 6 6 11 7 5 1
Neighs:        96080.5 ave      105759 max       88261 min
Histogram: 4 6 7 7 9 6 7 7 1 2

Total # of neighbors = 5380507
Ave neighs/atom = 437.86678
Ave special neighs/atom = 2
Neighbor list builds = 342
Dangerous builds = 0
kspace_style pppm/tip4p 1.0e-5
next nloop
jump SELF loop_start
run 10000 # 10ps
PPPM initialization ...
  extracting TIP4P info from pair style
  using 12-bit tables for long-range coulomb
  G vector (1/distance) = 0.32815664
  grid = 50 75 50
  stencil order = 5
  estimated absolute RMS force accuracy = 0.0035802102
  estimated relative force accuracy = 1.0781697e-05
  using double precision KISS FFT
  3d grid and FFT values/proc = 15776 4000
Generated 0 of 1 mixed pair_coeff terms from geometric mixing rule
Per MPI rank memory allocation (min/avg/max) = 11.2 | 11.34 | 11.44 Mbytes
   Step          Temp          TotEng         PotEng          Pxy           v_sxy         v_strain     v_viscosity  
     10000   336.62683     -40488.432     -48707.451     -1731.216       0.17170853     2.5            0.00068683413
     11000   348.23426     -40188.191     -48690.614     -2381.0982      0.23986616     2.75           0.00095946464
     12000   351.86202     -40082.909     -48673.907     -2237.1829      0.22447675     3              0.00089790702
     13000   361.57797     -39760.464     -48588.684     -2158.1892      0.21069263     3.25           0.00084277051
     14000   366.11669     -39380.213     -48319.25      -2487.8546      0.24660936     3.5            0.00098643742
     15000   369.47469     -39353.825     -48374.85      -2077.0534      0.19821106     3.75           0.00079284426
     16000   377.45112     -39265.867     -48481.644     -2309.586       0.23028588     4              0.00092114351
     17000   379.44919     -39143.955     -48408.517     -2227.5965      0.21411325     4.25           0.00085645298
     18000   388.45451     -38695.894     -48180.327     -2172.1013      0.21279044     4.5            0.00085116175
     19000   390.56049     -38811.311     -48347.164     -2191.3743      0.21635338     4.75           0.00086541353
     20000   392.73409     -38599.579     -48188.502     -2282.9193      0.22207886     5              0.00088831544
Loop time of 52.2139 on 56 procs for 10000 steps with 12288 atoms

Performance: 16.547 ns/day, 1.450 hours/ns, 191.520 timesteps/s, 2.353 Matom-step/s
99.7% CPU use with 56 MPI tasks x no OpenMP threads

MPI task timing breakdown:
Section |  min time  |  avg time  |  max time  |%varavg| %total
---------------------------------------------------------------
Pair    | 19.573     | 20.346     | 21.469     |   9.1 | 38.97
Bond    | 0.0021921  | 0.0032526  | 0.0046119  |   0.9 |  0.01
Kspace  | 14.598     | 15.917     | 16.735     |  10.4 | 30.48
Neigh   | 4.3544     | 4.3578     | 4.3604     |   0.1 |  8.35
Comm    | 1.6717     | 1.827      | 2.0633     |   6.3 |  3.50
Output  | 0.023221   | 0.040378   | 0.056976   |   5.0 |  0.08
Modify  | 7.3469     | 8.0669     | 9.457      |  17.5 | 15.45
Other   |            | 1.655      |            |       |  3.17

Nlocal:        219.429 ave         236 max         198 min
Histogram: 1 2 1 8 11 7 11 8 4 3
Nghost:        6833.54 ave        6911 max        6761 min
Histogram: 3 3 5 9 8 9 10 4 3 2
Neighs:        96070.8 ave      103570 max       86107 min
Histogram: 1 3 1 6 12 7 11 6 5 4

Total # of neighbors = 5379963
Ave neighs/atom = 437.82251
Ave special neighs/atom = 2
Neighbor list builds = 371
Dangerous builds = 0
kspace_style pppm/tip4p 1.0e-5
next nloop
jump SELF loop_start
run 10000 # 10ps
PPPM initialization ...
  extracting TIP4P info from pair style
  using 12-bit tables for long-range coulomb
  G vector (1/distance) = 0.32815664
  grid = 50 50 50
  stencil order = 5
  estimated absolute RMS force accuracy = 0.0035802102
  estimated relative force accuracy = 1.0781697e-05
  using double precision KISS FFT
  3d grid and FFT values/proc = 11424 2800
Generated 0 of 1 mixed pair_coeff terms from geometric mixing rule
Per MPI rank memory allocation (min/avg/max) = 10.92 | 11.03 | 11.12 Mbytes
   Step          Temp          TotEng         PotEng          Pxy           v_sxy         v_strain     v_viscosity  
     20000   392.58415     -38603.997     -48189.259     -1849.444       0.17788866     5              0.00071155465
     21000   398.75241     -38494.964     -48230.829     -2146.3874      0.20832437     5.25           0.00083329749
     22000   399.80782     -38512.99      -48274.624     -2237.7475      0.22205464     5.5            0.00088821855
     23000   394.82924     -38674.27      -48314.348     -2273.5134      0.22765492     5.75           0.00091061967
     24000   406.5454      -38212.744     -48138.882     -2072.7572      0.20476731     6              0.00081906922
     25000   402.21164     -38628.263     -48448.589     -2246.3542      0.22598175     6.25           0.00090392701
     26000   409.39985     -38250.8       -48246.631     -2188.0662      0.21932163     6.5            0.00087728651
     27000   405.21672     -38269.569     -48163.266     -2110.0741      0.21047052     6.75           0.00084188209
     28000   412.40063     -38054.979     -48124.077     -2209.8717      0.21627745     7              0.0008651098 
     29000   412.52098     -38187.633     -48259.669     -2240.312       0.22473562     7.25           0.00089894248
     30000   411.86306     -38161.601     -48217.574     -2152.3653      0.21080843     7.5            0.00084323372
Loop time of 44.9551 on 56 procs for 10000 steps with 12288 atoms

Performance: 19.219 ns/day, 1.249 hours/ns, 222.444 timesteps/s, 2.733 Matom-step/s
99.8% CPU use with 56 MPI tasks x no OpenMP threads

MPI task timing breakdown:
Section |  min time  |  avg time  |  max time  |%varavg| %total
---------------------------------------------------------------
Pair    | 19.143     | 20.111     | 20.859     |   8.8 | 44.74
Bond    | 0.0013997  | 0.0027053  | 0.0036988  |   0.9 |  0.01
Kspace  | 10.932     | 11.768     | 12.688     |  11.8 | 26.18
Neigh   | 4.455      | 4.4574     | 4.4601     |   0.1 |  9.92
Comm    | 1.5333     | 1.6395     | 1.801      |   4.6 |  3.65
Output  | 0.022954   | 0.039959   | 0.056355   |   5.0 |  0.09
Modify  | 5.156      | 5.6647     | 6.6851     |  14.7 | 12.60
Other   |            | 1.272      |            |       |  2.83

Nlocal:        219.429 ave         241 max         200 min
Histogram: 3 2 9 10 5 9 11 4 0 3
Nghost:        7296.27 ave        7353 max        7255 min
Histogram: 4 12 3 10 7 7 5 3 3 2
Neighs:        96060.3 ave      107138 max       86147 min
Histogram: 2 2 9 12 5 9 11 3 1 2

Total # of neighbors = 5379379
Ave neighs/atom = 437.77498
Ave special neighs/atom = 2
Neighbor list builds = 377
Dangerous builds = 0
kspace_style pppm/tip4p 1.0e-5
next nloop
jump SELF loop_start
run 10000 # 10ps
PPPM initialization ...
  extracting TIP4P info from pair style
  using 12-bit tables for long-range coulomb
  G vector (1/distance) = 0.32815664
  grid = 50 75 50
  stencil order = 5
  estimated absolute RMS force accuracy = 0.0035802102
  estimated relative force accuracy = 1.0781697e-05
  using double precision KISS FFT
  3d grid and FFT values/proc = 15776 4000
Generated 0 of 1 mixed pair_coeff terms from geometric mixing rule
Per MPI rank memory allocation (min/avg/max) = 11.21 | 11.34 | 11.45 Mbytes
   Step          Temp          TotEng         PotEng          Pxy           v_sxy         v_strain     v_viscosity  
     30000   412.08065     -38157.265     -48218.55      -1662.9584      0.1602236      7.5            0.0006408944 
     31000   413.93582     -38196.761     -48303.342     -1891.2072      0.18566391     7.75           0.00074265562
     32000   417.41694     -38112.192     -48303.767     -2012.3816      0.19217957     8              0.00076871826
     33000   411.43973     -38182.387     -48228.024     -2075.3938      0.20590433     8.25           0.00082361733
     34000   418.46547     -38020.835     -48238.01      -2304.427       0.23254991     8.5            0.00093019964
     35000   411.83683     -38155.661     -48210.993     -2179.5044      0.21784307     8.75           0.00087137227
     36000   413.29958     -38054.77      -48145.816     -2623.655       0.25394767     9              0.0010157907 
     37000   413.90507     -38159.107     -48264.937     -2238.9453      0.22342442     9.25           0.00089369768
     38000   429.04387     -37836.161     -48311.617     -2416.222       0.2361177      9.5            0.00094447078
     39000   420.48986     -38005.285     -48271.888     -2215.2367      0.22056414     9.75           0.00088225658
     40000   422.71103     -38012.915     -48333.749     -2157.5953      0.21890363     10             0.00087561453
Loop time of 52.4909 on 56 procs for 10000 steps with 12288 atoms

Performance: 16.460 ns/day, 1.458 hours/ns, 190.509 timesteps/s, 2.341 Matom-step/s
99.8% CPU use with 56 MPI tasks x no OpenMP threads

MPI task timing breakdown:
Section |  min time  |  avg time  |  max time  |%varavg| %total
---------------------------------------------------------------
Pair    | 19.319     | 20.356     | 21.337     |   9.5 | 38.78
Bond    | 0.0018196  | 0.0032005  | 0.0048039  |   0.9 |  0.01
Kspace  | 15.153     | 16.083     | 17.074     |   9.7 | 30.64
Neigh   | 4.4804     | 4.4839     | 4.4872     |   0.1 |  8.54
Comm    | 1.6819     | 1.8164     | 2.0399     |   5.9 |  3.46
Output  | 0.022937   | 0.039962   | 0.05632    |   5.0 |  0.08
Modify  | 7.3323     | 8.0489     | 9.4403     |  17.9 | 15.33
Other   |            | 1.66       |            |       |  3.16

Nlocal:        219.429 ave         238 max         190 min
Histogram: 1 0 0 5 7 17 7 7 8 4
Nghost:        6858.46 ave        6922 max        6786 min
Histogram: 1 4 6 5 7 6 16 6 3 2
Neighs:        96053.8 ave      104432 max       81675 min
Histogram: 1 0 0 3 9 13 11 6 10 3

Total # of neighbors = 5379010
Ave neighs/atom = 437.74495
Ave special neighs/atom = 2
Neighbor list builds = 379
Dangerous builds = 0
kspace_style pppm/tip4p 1.0e-5
next nloop
jump SELF loop_start
run 10000 # 10ps
PPPM initialization ...
  extracting TIP4P info from pair style
  using 12-bit tables for long-range coulomb
  G vector (1/distance) = 0.32815664
  grid = 50 50 50
  stencil order = 5
  estimated absolute RMS force accuracy = 0.0035802102
  estimated relative force accuracy = 1.0781697e-05
  using double precision KISS FFT
  3d grid and FFT values/proc = 11424 2800
Generated 0 of 1 mixed pair_coeff terms from geometric mixing rule
Per MPI rank memory allocation (min/avg/max) = 10.92 | 11.03 | 11.12 Mbytes
   Step          Temp          TotEng         PotEng          Pxy           v_sxy         v_strain     v_viscosity  
     40000   422.8359      -38012.414     -48336.297     -1658.3912      0.16773228     10             0.0006709291 
     41000   422.62013     -38022.587     -48341.202     -2332.1853      0.23012422     10.25          0.00092049689
     42000   424.12151     -37869.625     -48224.897     -2188.0109      0.21065083     10.5           0.00084260331
     43000   426.94298     -37747.072     -48171.233     -2037.4225      0.20372527     10.75          0.00081490108
     44000   428.40132     -37757.424     -48217.192     -2088.5102      0.20120171     11             0.00080480684
     45000   423.09319     -37861.156     -48191.321     -2225.1976      0.21562234     11.25          0.00086248936
     46000   425.87596     -37950.363     -48348.472     -2277.4262      0.22410417     11.5           0.00089641669
     47000   433.10062     -37656.924     -48231.428     -1884.7761      0.18124338     11.75          0.00072497352
     48000   430.31535     -37651.807     -48158.307     -1992.0046      0.19613268     12             0.00078453071
     49000   433.01174     -37554.735     -48127.069     -2076.9647      0.20488501     12.25          0.00081954002
     50000   430.2784      -37742.02      -48247.618     -2322.9769      0.2230447      12.5           0.00089217881
Loop time of 45.1043 on 56 procs for 10000 steps with 12288 atoms

Performance: 19.156 ns/day, 1.253 hours/ns, 221.708 timesteps/s, 2.724 Matom-step/s
99.8% CPU use with 56 MPI tasks x no OpenMP threads

MPI task timing breakdown:
Section |  min time  |  avg time  |  max time  |%varavg| %total
---------------------------------------------------------------
Pair    | 19.013     | 20.092     | 21.064     |  10.7 | 44.54
Bond    | 0.0014448  | 0.0026695  | 0.0042042  |   1.0 |  0.01
Kspace  | 10.935     | 11.875     | 12.951     |  13.6 | 26.33
Neigh   | 4.4854     | 4.488      | 4.4906     |   0.1 |  9.95
Comm    | 1.5557     | 1.649      | 1.7974     |   4.4 |  3.66
Output  | 0.023207   | 0.040163   | 0.056515   |   4.9 |  0.09
Modify  | 5.155      | 5.6687     | 6.7148     |  14.7 | 12.57
Other   |            | 1.289      |            |       |  2.86

Nlocal:        219.429 ave         244 max         203 min
Histogram: 5 5 8 12 7 12 3 2 1 1
Nghost:        7266.23 ave        7346 max        7202 min
Histogram: 3 5 9 4 10 11 6 5 1 2
Neighs:        96045.5 ave      107165 max       88433 min
Histogram: 6 3 9 10 8 14 2 1 1 2

Total # of neighbors = 5378546
Ave neighs/atom = 437.70719
Ave special neighs/atom = 2
Neighbor list builds = 378
Dangerous builds = 0
kspace_style pppm/tip4p 1.0e-5
next nloop
jump SELF loop_start
run 10000 # 10ps
PPPM initialization ...
  extracting TIP4P info from pair style
  using 12-bit tables for long-range coulomb
  G vector (1/distance) = 0.32815664
  grid = 50 75 50
  stencil order = 5
  estimated absolute RMS force accuracy = 0.0035802102
  estimated relative force accuracy = 1.0781697e-05
  using double precision KISS FFT
  3d grid and FFT values/proc = 15776 4000
Generated 0 of 1 mixed pair_coeff terms from geometric mixing rule
Per MPI rank memory allocation (min/avg/max) = 11.21 | 11.34 | 11.45 Mbytes
   Step          Temp          TotEng         PotEng          Pxy           v_sxy         v_strain     v_viscosity  
     50000   430.07039     -37746.963     -48247.482     -1906.8852      0.18037916     12.5           0.00072151664
     51000   424.31211     -37698.931     -48058.857     -2471.5975      0.24747191     12.75          0.00098988764
     52000   427.07253     -37752.192     -48179.516     -2093.8256      0.19921218     13             0.00079684873
     53000   437.86261     -37343.245     -48034.018     -2067.5057      0.20042527     13.25          0.00080170107
     54000   431.86952     -37569.455     -48113.901     -2166.0471      0.2138336      13.5           0.00085533442
     55000   431.32482     -37608.764     -48139.911     -2192.8029      0.2205225      13.75          0.00088208998
     56000   430.42701     -37782.244     -48291.471     -2326.7682      0.23123143     14             0.0009249257 
     57000   431.99657     -37743.288     -48290.836     -2342.0895      0.22958543     14.25          0.00091834174
     58000   432.88654     -37656.397     -48225.675     -2153.8775      0.2142178      14.5           0.0008568712 
     59000   430.2896      -37508.179     -48014.051     -2155.658       0.21449049     14.75          0.00085796196
     60000   427.7374      -37656.207     -48099.764     -2025.1155      0.20435912     15             0.00081743649
Loop time of 52.5858 on 56 procs for 10000 steps with 12288 atoms

Performance: 16.430 ns/day, 1.461 hours/ns, 190.166 timesteps/s, 2.337 Matom-step/s
99.7% CPU use with 56 MPI tasks x no OpenMP threads

MPI task timing breakdown:
Section |  min time  |  avg time  |  max time  |%varavg| %total
---------------------------------------------------------------
Pair    | 19.41      | 20.388     | 21.443     |  10.2 | 38.77
Bond    | 0.0020121  | 0.0031828  | 0.004883   |   0.9 |  0.01
Kspace  | 15.13      | 16.075     | 17.157     |  11.7 | 30.57
Neigh   | 4.517      | 4.5199     | 4.5225     |   0.1 |  8.60
Comm    | 1.6793     | 1.8179     | 2.0615     |   6.1 |  3.46
Output  | 0.022362   | 0.039306   | 0.055648   |   5.0 |  0.07
Modify  | 7.3458     | 8.0701     | 9.4457     |  17.7 | 15.35
Other   |            | 1.673      |            |       |  3.18

Nlocal:        219.429 ave         244 max         205 min
Histogram: 5 9 5 14 9 5 5 2 1 1
Nghost:        6842.64 ave        6908 max        6789 min
Histogram: 3 6 4 10 10 11 4 3 3 2
Neighs:        96085.6 ave      107005 max       88800 min
Histogram: 6 6 11 6 10 6 5 4 0 2

Total # of neighbors = 5380793
Ave neighs/atom = 437.89006
Ave special neighs/atom = 2
Neighbor list builds = 382
Dangerous builds = 0
kspace_style pppm/tip4p 1.0e-5
next nloop
jump SELF loop_start
run 10000 # 10ps
PPPM initialization ...
  extracting TIP4P info from pair style
  using 12-bit tables for long-range coulomb
  G vector (1/distance) = 0.32815664
  grid = 50 50 50
  stencil order = 5
  estimated absolute RMS force accuracy = 0.0035802102
  estimated relative force accuracy = 1.0781697e-05
  using double precision KISS FFT
  3d grid and FFT values/proc = 11424 2800
Generated 0 of 1 mixed pair_coeff terms from geometric mixing rule
Per MPI rank memory allocation (min/avg/max) = 10.92 | 11.03 | 11.12 Mbytes
   Step          Temp          TotEng         PotEng          Pxy           v_sxy         v_strain     v_viscosity  
     60000   427.99509     -37649.466     -48099.315     -1529.6589      0.15371341     15             0.00061485365
     61000   428.81481     -37586.469     -48056.332     -2096.0711      0.1998945      15.25          0.000799578  
     62000   431.24892     -37581.436     -48110.73      -2110.7987      0.20970031     15.5           0.00083880122
     63000   429.62056     -37887.269     -48376.806     -2007.5861      0.1965541      15.75          0.00078621641
     64000   435.9725      -37472.851     -48117.475     -2680.7634      0.26312062     16             0.0010524825 
     65000   431.84376     -37680.228     -48224.045     -2212.1989      0.21867197     16.25          0.00087468789
     66000   435.85792     -37480.246     -48122.072     -2052.7355      0.20526996     16.5           0.00082107983
     67000   426.01935     -37819.198     -48220.808     -1863.4351      0.18414242     16.75          0.0007365697 
     68000   428.35915     -37787.595     -48246.333     -2289.0927      0.22932792     17             0.00091731167
     69000   440.12653     -37437.419     -48183.467     -2001.9338      0.19803875     17.25          0.00079215502
     70000   430.99571     -37710.434     -48233.546     -2228.7925      0.21756237     17.5           0.00087024948
Loop time of 45.1644 on 56 procs for 10000 steps with 12288 atoms

Performance: 19.130 ns/day, 1.255 hours/ns, 221.413 timesteps/s, 2.721 Matom-step/s
99.8% CPU use with 56 MPI tasks x no OpenMP threads

MPI task timing breakdown:
Section |  min time  |  avg time  |  max time  |%varavg| %total
---------------------------------------------------------------
Pair    | 19.178     | 20.082     | 21.24      |  10.2 | 44.46
Bond    | 0.0013586  | 0.0026743  | 0.0043178  |   1.0 |  0.01
Kspace  | 10.896     | 11.913     | 12.807     |  13.3 | 26.38
Neigh   | 4.5333     | 4.5358     | 4.5376     |   0.0 | 10.04
Comm    | 1.5325     | 1.6423     | 1.833      |   4.4 |  3.64
Output  | 0.022739   | 0.039736   | 0.056107   |   5.0 |  0.09
Modify  | 5.1537     | 5.6736     | 6.6942     |  14.6 | 12.56
Other   |            | 1.276      |            |       |  2.82

Nlocal:        219.429 ave         237 max         205 min
Histogram: 5 5 5 8 8 12 4 3 4 2
Nghost:        7293.05 ave        7365 max        7225 min
Histogram: 4 3 7 8 6 10 7 4 4 3
Neighs:        96061.2 ave      104886 max       88178 min
Histogram: 4 2 7 8 8 12 5 6 3 1

Total # of neighbors = 5379429
Ave neighs/atom = 437.77905
Ave special neighs/atom = 2
Neighbor list builds = 382
Dangerous builds = 0
kspace_style pppm/tip4p 1.0e-5
next nloop
jump SELF loop_start
run 10000 # 10ps
PPPM initialization ...
  extracting TIP4P info from pair style
  using 12-bit tables for long-range coulomb
  G vector (1/distance) = 0.32815664
  grid = 50 75 50
  stencil order = 5
  estimated absolute RMS force accuracy = 0.0035802102
  estimated relative force accuracy = 1.0781697e-05
  using double precision KISS FFT
  3d grid and FFT values/proc = 15776 4000
Generated 0 of 1 mixed pair_coeff terms from geometric mixing rule
Per MPI rank memory allocation (min/avg/max) = 11.21 | 11.35 | 11.45 Mbytes
   Step          Temp          TotEng         PotEng          Pxy           v_sxy         v_strain     v_viscosity  
     70000   431.00691     -37709.871     -48233.256     -1645.976       0.15805954     17.5           0.00063223816
     71000   435.37047     -37608.242     -48238.167     -1772.4641      0.17507592     17.75          0.0007003037 
     72000   435.48232     -37571.114     -48203.77      -2342.462       0.23058771     18             0.00092235082
     73000   428.48607     -37792.706     -48254.543     -2127.6057      0.2087237      18.25          0.00083489481
     74000   436.02763     -37630.627     -48276.597     -2159.5043      0.2063158      18.5           0.0008252632 
     75000   433.01425     -37691.549     -48263.945     -2249.2002      0.22077775     18.75          0.00088311099
     76000   432.78161     -37475.821     -48042.537     -1973.2902      0.19154224     19             0.00076616898
     77000   434.6246      -37633.647     -48245.361     -2321.6223      0.22482317     19.25          0.00089929266
     78000   433.81686     -37569.613     -48161.605     -2304.8808      0.22715351     19.5           0.00090861406
     79000   438.07422     -37539.88      -48235.819     -2351.0374      0.22901813     19.75          0.00091607252
     80000   433.83666     -37686.015     -48278.491     -2564.2488      0.25238639     20             0.0010095455 
Loop time of 52.6436 on 56 procs for 10000 steps with 12288 atoms

Performance: 16.412 ns/day, 1.462 hours/ns, 189.957 timesteps/s, 2.334 Matom-step/s
99.8% CPU use with 56 MPI tasks x no OpenMP threads

MPI task timing breakdown:
Section |  min time  |  avg time  |  max time  |%varavg| %total
---------------------------------------------------------------
Pair    | 19.189     | 20.363     | 21.786     |  11.2 | 38.68
Bond    | 0.0016745  | 0.0031812  | 0.0046964  |   0.9 |  0.01
Kspace  | 14.886     | 16.166     | 17.153     |  12.4 | 30.71
Neigh   | 4.5524     | 4.5557     | 4.5587     |   0.1 |  8.65
Comm    | 1.6812     | 1.8151     | 2.0097     |   6.0 |  3.45
Output  | 0.023061   | 0.040045   | 0.056365   |   4.9 |  0.08
Modify  | 7.3575     | 8.0631     | 9.4396     |  17.8 | 15.32
Other   |            | 1.638      |            |       |  3.11

Nlocal:        219.429 ave         239 max         203 min
Histogram: 4 4 7 8 10 6 7 6 2 2
Nghost:        6832.54 ave        6907 max        6788 min
Histogram: 7 7 11 11 4 5 2 4 3 2
Neighs:        96074.3 ave      106578 max       88242 min
Histogram: 5 3 10 7 11 5 10 3 0 2

Total # of neighbors = 5380160
Ave neighs/atom = 437.83854
Ave special neighs/atom = 2
Neighbor list builds = 382
Dangerous builds = 0
kspace_style pppm/tip4p 1.0e-5
next nloop
jump SELF loop_start
run 10000 # 10ps
PPPM initialization ...
  extracting TIP4P info from pair style
  using 12-bit tables for long-range coulomb
  G vector (1/distance) = 0.32815664
  grid = 50 50 50
  stencil order = 5
  estimated absolute RMS force accuracy = 0.0035802102
  estimated relative force accuracy = 1.0781697e-05
  using double precision KISS FFT
  3d grid and FFT values/proc = 11424 2800
Generated 0 of 1 mixed pair_coeff terms from geometric mixing rule
Per MPI rank memory allocation (min/avg/max) = 10.92 | 11.04 | 11.12 Mbytes
   Step          Temp          TotEng         PotEng          Pxy           v_sxy         v_strain     v_viscosity  
     80000   433.65163     -37686.5       -48274.458     -2020.1052      0.19680249     20             0.00078720995
     81000   431.33688     -37692.518     -48223.96      -2227.5304      0.21463834     20.25          0.00085855336
     82000   433.05463     -37488.949     -48062.33      -2255.8685      0.21894467     20.5           0.00087577869
     83000   435.22185     -37613.832     -48240.128     -2363.6617      0.2327739      20.75          0.00093109559
     84000   436.81541     -37487.312     -48152.516     -2191.0916      0.21491015     21             0.0008596406 
     85000   434.22051     -37703.055     -48304.903     -1926.0029      0.18871136     21.25          0.00075484545
     86000   433.03289     -37494.744     -48067.595     -2485.7587      0.24452765     21.5           0.00097811059
     87000   437.61305     -37428.608     -48113.287     -2293.6737      0.22562274     21.75          0.00090249096
     88000   431.41418     -37581.471     -48114.799     -2146.004       0.21035625     22             0.000841425  
     89000   435.83657     -37356.775     -47998.08      -2223.3774      0.21479099     22.25          0.00085916396
     90000   434.22854     -37585.963     -48188.006     -2297.2683      0.22027485     22.5           0.00088109939
Loop time of 45.0558 on 56 procs for 10000 steps with 12288 atoms

Performance: 19.176 ns/day, 1.252 hours/ns, 221.947 timesteps/s, 2.727 Matom-step/s
99.8% CPU use with 56 MPI tasks x no OpenMP threads

MPI task timing breakdown:
Section |  min time  |  avg time  |  max time  |%varavg| %total
---------------------------------------------------------------
Pair    | 18.96      | 20.096     | 21.282     |  11.8 | 44.60
Bond    | 0.0014759  | 0.0026913  | 0.0040145  |   1.0 |  0.01
Kspace  | 10.715     | 11.805     | 12.853     |  15.0 | 26.20
Neigh   | 4.5183     | 4.5212     | 4.524      |   0.1 | 10.03
Comm    | 1.5371     | 1.6458     | 1.7914     |   4.3 |  3.65
Output  | 0.022539   | 0.039604   | 0.055962   |   5.0 |  0.09
Modify  | 5.1476     | 5.667      | 6.6972     |  14.7 | 12.58
Other   |            | 1.279      |            |       |  2.84

Nlocal:        219.429 ave         234 max         204 min
Histogram: 2 3 3 8 9 10 11 2 3 5
Nghost:        7273.38 ave        7350 max        7193 min
Histogram: 2 2 4 5 13 12 10 5 2 1
Neighs:        96069.1 ave      103562 max       87449 min
Histogram: 2 1 7 5 8 9 13 4 2 5

Total # of neighbors = 5379867
Ave neighs/atom = 437.8147
Ave special neighs/atom = 2
Neighbor list builds = 384
Dangerous builds = 0
kspace_style pppm/tip4p 1.0e-5
next nloop
jump SELF loop_start
run 10000 # 10ps
PPPM initialization ...
  extracting TIP4P info from pair style
  using 12-bit tables for long-range coulomb
  G vector (1/distance) = 0.32815664
  grid = 50 75 50
  stencil order = 5
  estimated absolute RMS force accuracy = 0.0035802102
  estimated relative force accuracy = 1.0781697e-05
  using double precision KISS FFT
  3d grid and FFT values/proc = 15776 4000
Generated 0 of 1 mixed pair_coeff terms from geometric mixing rule
Per MPI rank memory allocation (min/avg/max) = 11.21 | 11.35 | 11.45 Mbytes
   Step          Temp          TotEng         PotEng          Pxy           v_sxy         v_strain     v_viscosity  
     90000   434.16991     -37589.42      -48190.032     -1713.7724      0.16085578     22.5           0.00064342312
     91000   433.4668      -37529.117     -48112.563     -2190.5583      0.21419495     22.75          0.00085677978
     92000   436.10744     -37458.8       -48106.719     -2433.8122      0.24214978     23             0.00096859912
     93000   428.07047     -37650.808     -48102.497     -2140.6021      0.21803329     23.25          0.00087213314
     94000   433.90221     -37647.93      -48242.007     -2094.9288      0.20750623     23.5           0.00083002493
     95000   430.08424     -37706.744     -48207.601     -2513.5531      0.24228021     23.75          0.00096912085
     96000   433.42426     -37569.289     -48151.696     -2115.3818      0.21370174     24             0.00085480695
     97000   432.58218     -37707.595     -48269.441     -2216.927       0.21893892     24.25          0.00087575569
     98000   433.54603     -37479.164     -48064.543     -1993.4589      0.19355447     24.5           0.0007742179 
     99000   436.27938     -37538.173     -48190.29      -2031.1762      0.20223733     24.75          0.00080894931
    100000   434.27207     -37436.82      -48039.926     -2185.4718      0.21399326     25             0.00085597302
Loop time of 52.4992 on 56 procs for 10000 steps with 12288 atoms

Performance: 16.457 ns/day, 1.458 hours/ns, 190.479 timesteps/s, 2.341 Matom-step/s
99.8% CPU use with 56 MPI tasks x no OpenMP threads

MPI task timing breakdown:
Section |  min time  |  avg time  |  max time  |%varavg| %total
---------------------------------------------------------------
Pair    | 19.626     | 20.347     | 21.059     |   9.1 | 38.76
Bond    | 0.0016796  | 0.0031797  | 0.0046912  |   0.9 |  0.01
Kspace  | 15.3       | 16.007     | 16.631     |  10.3 | 30.49
Neigh   | 4.5297     | 4.5331     | 4.5361     |   0.1 |  8.63
Comm    | 1.677      | 1.8173     | 2.028      |   5.9 |  3.46
Output  | 0.022715   | 0.039606   | 0.055845   |   4.9 |  0.08
Modify  | 7.3778     | 8.0967     | 9.4866     |  17.8 | 15.42
Other   |            | 1.655      |            |       |  3.15

Nlocal:        219.429 ave         241 max         197 min
Histogram: 1 1 7 11 9 5 10 10 1 1
Nghost:         6858.7 ave        6936 max        6785 min
Histogram: 4 2 3 10 13 10 6 2 3 3
Neighs:        96059.4 ave      107033 max       84896 min
Histogram: 2 0 6 9 11 5 14 7 1 1

Total # of neighbors = 5379327
Ave neighs/atom = 437.77075
Ave special neighs/atom = 2
Neighbor list builds = 382
Dangerous builds = 0
kspace_style pppm/tip4p 1.0e-5
next nloop
jump SELF loop_start
run 10000 # 10ps
PPPM initialization ...
  extracting TIP4P info from pair style
  using 12-bit tables for long-range coulomb
  G vector (1/distance) = 0.32815664
  grid = 50 50 50
  stencil order = 5
  estimated absolute RMS force accuracy = 0.0035802102
  estimated relative force accuracy = 1.0781697e-05
  using double precision KISS FFT
  3d grid and FFT values/proc = 11424 2800
Generated 0 of 1 mixed pair_coeff terms from geometric mixing rule
Per MPI rank memory allocation (min/avg/max) = 10.92 | 11.04 | 11.12 Mbytes
   Step          Temp          TotEng         PotEng          Pxy           v_sxy         v_strain     v_viscosity  
    100000   434.45054     -37431.158     -48038.622     -1603.4934      0.15428335     25             0.00061713341
    101000   432.5479      -37725.369     -48286.378     -1710.7843      0.17241214     25.25          0.00068964856
    102000   435.43508     -37403.97      -48035.472     -2147.1113      0.21522208     25.5           0.00086088833
    103000   432.89536     -37550.357     -48119.851     -2137.6559      0.21297628     25.75          0.00085190512
    104000   435.898       -37361.08      -48003.885     -2232.1439      0.21995216     26             0.00087980863
    105000   431.71131     -37685.758     -48226.342     -1951.4854      0.18409003     26.25          0.00073636013
    106000   433.59335     -37645.528     -48232.063     -2086.2934      0.20904196     26.5           0.00083616782
    107000   432.23427     -37657.1       -48210.452     -2069.869       0.19839569     26.75          0.00079358276
    108000   435.9887      -37611.524     -48256.544     -1904.4154      0.18424797     27             0.00073699188
    109000   426.1244      -37759.019     -48163.194     -2135.0608      0.21339301     27.25          0.00085357204
    110000   435.7572      -37527.633     -48167         -1900.4836      0.19127024     27.5           0.00076508097
Loop time of 45.2115 on 56 procs for 10000 steps with 12288 atoms

Performance: 19.110 ns/day, 1.256 hours/ns, 221.183 timesteps/s, 2.718 Matom-step/s
99.8% CPU use with 56 MPI tasks x no OpenMP threads

MPI task timing breakdown:
Section |  min time  |  avg time  |  max time  |%varavg| %total
---------------------------------------------------------------
Pair    | 18.814     | 20.068     | 21.397     |  12.4 | 44.39
Bond    | 0.0014821  | 0.0026538  | 0.0041274  |   1.0 |  0.01
Kspace  | 10.785     | 11.977     | 13.238     |  15.4 | 26.49
Neigh   | 4.5318     | 4.5346     | 4.5373     |   0.1 | 10.03
Comm    | 1.5321     | 1.6452     | 1.8118     |   4.5 |  3.64
Output  | 0.023004   | 0.040032   | 0.056675   |   5.0 |  0.09
Modify  | 5.1656     | 5.6609     | 6.699      |  14.8 | 12.52
Other   |            | 1.282      |            |       |  2.84

Nlocal:        219.429 ave         232 max         205 min
Histogram: 3 2 7 5 7 12 4 5 5 6
Nghost:        7276.34 ave        7344 max        7200 min
Histogram: 1 1 11 9 5 7 7 5 5 5
Neighs:        96034.2 ave      103229 max       88810 min
Histogram: 3 2 8 6 10 9 6 3 4 5

Total # of neighbors = 5377918
Ave neighs/atom = 437.65609
Ave special neighs/atom = 2
Neighbor list builds = 381
Dangerous builds = 0
kspace_style pppm/tip4p 1.0e-5
next nloop
jump SELF loop_start
run 10000 # 10ps
PPPM initialization ...
  extracting TIP4P info from pair style
  using 12-bit tables for long-range coulomb
  G vector (1/distance) = 0.32815664
  grid = 50 75 50
  stencil order = 5
  estimated absolute RMS force accuracy = 0.0035802102
  estimated relative force accuracy = 1.0781697e-05
  using double precision KISS FFT
  3d grid and FFT values/proc = 15776 4000
Generated 0 of 1 mixed pair_coeff terms from geometric mixing rule
Per MPI rank memory allocation (min/avg/max) = 11.21 | 11.35 | 11.45 Mbytes
   Step          Temp          TotEng         PotEng          Pxy           v_sxy         v_strain     v_viscosity  
    110000   435.71168     -37526.369     -48164.625     -1388.4302      0.13890428     27.5           0.00055561713
    111000   432.85195     -37622.402     -48190.835     -1863.6297      0.18277152     27.75          0.00073108609
    112000   431.02648     -37769.46      -48293.323     -2084.3932      0.20523939     28             0.00082095755
    113000   428.20369     -37514.118     -47969.06      -1963.5954      0.18911765     28.25          0.00075647059
    114000   431.71215     -37598.704     -48139.308     -1978.5291      0.19279442     28.5           0.00077117767
    115000   432.4842      -37617.49      -48176.944     -2057.554       0.19904799     28.75          0.00079619198
    116000   439.06723     -37337.175     -48057.36      -2318.9659      0.22381612     29             0.00089526446
    117000   430.47872     -37595.287     -48105.776     -2053.0475      0.19823868     29.25          0.00079295473
    118000   438.36403     -37405.251     -48108.266     -2067.3492      0.20546441     29.5           0.00082185764
    119000   427.78879     -37857.5       -48302.312     -2325.3489      0.22640268     29.75          0.00090561074
    120000   434.19817     -37661.206     -48262.509     -2741.179       0.26787449     30             0.001071498  
Loop time of 52.5405 on 56 procs for 10000 steps with 12288 atoms

Performance: 16.444 ns/day, 1.459 hours/ns, 190.329 timesteps/s, 2.339 Matom-step/s
99.8% CPU use with 56 MPI tasks x no OpenMP threads

MPI task timing breakdown:
Section |  min time  |  avg time  |  max time  |%varavg| %total
---------------------------------------------------------------
Pair    | 19.305     | 20.322     | 21.195     |   9.9 | 38.68
Bond    | 0.0016353  | 0.0031516  | 0.0049471  |   1.0 |  0.01
Kspace  | 15.167     | 16.055     | 17.087     |  10.9 | 30.56
Neigh   | 4.5507     | 4.5539     | 4.5568     |   0.1 |  8.67
Comm    | 1.6849     | 1.8421     | 2.0765     |   6.5 |  3.51
Output  | 0.022992   | 0.039953   | 0.056219   |   4.9 |  0.08
Modify  | 7.3772     | 8.0765     | 9.4553     |  17.8 | 15.37
Other   |            | 1.648      |            |       |  3.14

Nlocal:        219.429 ave         242 max         201 min
Histogram: 2 6 10 6 6 10 8 7 0 1
Nghost:        6850.86 ave        6933 max        6789 min
Histogram: 2 4 13 10 10 5 7 2 1 2
Neighs:        96065.5 ave      106586 max       86892 min
Histogram: 2 5 8 8 7 7 9 8 1 1

Total # of neighbors = 5379670
Ave neighs/atom = 437.79867
Ave special neighs/atom = 2
Neighbor list builds = 384
Dangerous builds = 0
kspace_style pppm/tip4p 1.0e-5
next nloop
jump SELF loop_start
run 10000 # 10ps
PPPM initialization ...
  extracting TIP4P info from pair style
  using 12-bit tables for long-range coulomb
  G vector (1/distance) = 0.32815664
  grid = 50 50 50
  stencil order = 5
  estimated absolute RMS force accuracy = 0.0035802102
  estimated relative force accuracy = 1.0781697e-05
  using double precision KISS FFT
  3d grid and FFT values/proc = 11424 2800
Generated 0 of 1 mixed pair_coeff terms from geometric mixing rule
Per MPI rank memory allocation (min/avg/max) = 10.92 | 11.04 | 11.12 Mbytes
   Step          Temp          TotEng         PotEng          Pxy           v_sxy         v_strain     v_viscosity  
    120000   433.61426     -37675.393     -48262.439     -2242.7389      0.21662719     30             0.00086650878
    121000   430.83878     -37773.383     -48292.663     -2485.2115      0.24195703     30.25          0.00096782811
    122000   433.66129     -37511.401     -48099.595     -2356.6489      0.23631026     30.5           0.00094524104
    123000   430.07355     -37669.961     -48170.558     -2061.965       0.20473516     30.75          0.00081894066
    124000   433.65282     -37503.062     -48091.049     -2015.0816      0.19795021     31             0.00079180083
    125000   437.04818     -37520.527     -48191.415     -2116.9381      0.21006943     31.25          0.00084027773
    126000   434.19357     -37674.883     -48276.073     -2443.3496      0.23570841     31.5           0.00094283364
    127000   430.0692      -37719.771     -48220.261     -2231.61        0.22000622     31.75          0.00088002487
    128000   435.84303     -37442.5       -48083.963     -2358.4583      0.2332544      32             0.00093301761
    129000   432.59289     -37528.828     -48090.936     -2087.5883      0.20462473     32.25          0.00081849893
    130000   432.56357     -37571.015     -48132.407     -1934.8658      0.19028207     32.5           0.0007611283 
Loop time of 45.1657 on 56 procs for 10000 steps with 12288 atoms

Performance: 19.130 ns/day, 1.255 hours/ns, 221.407 timesteps/s, 2.721 Matom-step/s
99.8% CPU use with 56 MPI tasks x no OpenMP threads

MPI task timing breakdown:
Section |  min time  |  avg time  |  max time  |%varavg| %total
---------------------------------------------------------------
Pair    | 18.463     | 20.06      | 20.96      |  11.5 | 44.41
Bond    | 0.0013041  | 0.0026352  | 0.0041558  |   1.0 |  0.01
Kspace  | 11.004     | 11.926     | 13.563     |  14.9 | 26.40
Neigh   | 4.5518     | 4.5547     | 4.5578     |   0.1 | 10.08
Comm    | 1.5342     | 1.6351     | 1.7751     |   4.5 |  3.62
Output  | 0.022884   | 0.039907   | 0.056197   |   5.0 |  0.09
Modify  | 5.1339     | 5.6698     | 6.7077     |  14.7 | 12.55
Other   |            | 1.278      |            |       |  2.83

Nlocal:        219.429 ave         240 max         193 min
Histogram: 1 0 2 7 14 10 8 8 4 2
Nghost:         7272.2 ave        7359 max        7171 min
Histogram: 2 2 8 2 10 8 8 8 6 2
Neighs:          96078 ave      106710 max       83680 min
Histogram: 1 0 4 11 12 6 12 4 4 2

Total # of neighbors = 5380368
Ave neighs/atom = 437.85547
Ave special neighs/atom = 2
Neighbor list builds = 383
Dangerous builds = 0
kspace_style pppm/tip4p 1.0e-5
next nloop
jump SELF loop_start
run 10000 # 10ps
PPPM initialization ...
  extracting TIP4P info from pair style
  using 12-bit tables for long-range coulomb
  G vector (1/distance) = 0.32815664
  grid = 50 75 50
  stencil order = 5
  estimated absolute RMS force accuracy = 0.0035802102
  estimated relative force accuracy = 1.0781697e-05
  using double precision KISS FFT
  3d grid and FFT values/proc = 15776 4000
Generated 0 of 1 mixed pair_coeff terms from geometric mixing rule
Per MPI rank memory allocation (min/avg/max) = 11.21 | 11.35 | 11.45 Mbytes
   Step          Temp          TotEng         PotEng          Pxy           v_sxy         v_strain     v_viscosity  
    130000   432.94831     -37560         -48130.786     -1523.0782      0.1481679      32.5           0.00059267159
    131000   434.35063     -37742.435     -48347.46      -2042.9697      0.19798211     32.75          0.00079192845
    132000   435.9296      -37362.295     -48005.871     -1940.0342      0.19183713     33             0.0007673485 
    133000   432.47947     -37624.993     -48184.332     -2238.7536      0.22195709     33.25          0.00088782834
    134000   436.39398     -37567.59      -48222.504     -2072.8933      0.20407976     33.5           0.00081631906
    135000   435.29202     -37394.383     -48022.392     -2268.9125      0.22177611     33.75          0.00088710443
    136000   433.43874     -37557.812     -48140.572     -2148.7935      0.21324846     34             0.00085299385
    137000   428.63713     -37685.399     -48150.923     -2174.8142      0.21363615     34.25          0.00085454462
    138000   428.27541     -37820.989     -48277.683     -2551.737       0.25652132     34.5           0.0010260853 
    139000   433.25831     -37589.31      -48167.665     -2420.456       0.23748113     34.75          0.0009499245 
    140000   429.72568     -37821.991     -48314.094     -2277.134       0.22273449     35             0.00089093797
Loop time of 52.5217 on 56 procs for 10000 steps with 12288 atoms

Performance: 16.450 ns/day, 1.459 hours/ns, 190.398 timesteps/s, 2.340 Matom-step/s
99.8% CPU use with 56 MPI tasks x no OpenMP threads

MPI task timing breakdown:
Section |  min time  |  avg time  |  max time  |%varavg| %total
---------------------------------------------------------------
Pair    | 18.791     | 20.324     | 21.78      |  12.2 | 38.70
Bond    | 0.0015349  | 0.003129   | 0.004612   |   1.0 |  0.01
Kspace  | 14.744     | 16.12      | 17.7       |  13.6 | 30.69
Neigh   | 4.491      | 4.4938     | 4.4963     |   0.1 |  8.56
Comm    | 1.683      | 1.8234     | 2.048      |   5.8 |  3.47
Output  | 0.022597   | 0.039462   | 0.055699   |   4.9 |  0.08
Modify  | 7.3252     | 8.0661     | 9.4563     |  17.8 | 15.36
Other   |            | 1.652      |            |       |  3.15

Nlocal:        219.429 ave         240 max         193 min
Histogram: 1 1 2 8 13 8 8 7 5 3
Nghost:        6887.55 ave        6962 max        6808 min
Histogram: 2 2 5 6 13 11 5 7 2 3
Neighs:        96067.9 ave      106231 max       82853 min
Histogram: 1 1 2 6 12 11 10 8 3 2

Total # of neighbors = 5379804
Ave neighs/atom = 437.80957
Ave special neighs/atom = 2
Neighbor list builds = 380
Dangerous builds = 0
kspace_style pppm/tip4p 1.0e-5
next nloop
jump SELF loop_start
run 10000 # 10ps
PPPM initialization ...
  extracting TIP4P info from pair style
  using 12-bit tables for long-range coulomb
  G vector (1/distance) = 0.32815664
  grid = 50 50 50
  stencil order = 5
  estimated absolute RMS force accuracy = 0.0035802102
  estimated relative force accuracy = 1.0781697e-05
  using double precision KISS FFT
  3d grid and FFT values/proc = 11424 2800
Generated 0 of 1 mixed pair_coeff terms from geometric mixing rule
Per MPI rank memory allocation (min/avg/max) = 10.92 | 11.04 | 11.12 Mbytes
   Step          Temp          TotEng         PotEng          Pxy           v_sxy         v_strain     v_viscosity  
    140000   429.71884     -37821.047     -48312.983     -1830.8406      0.17630527     35             0.0007052211 
    141000   442.06731     -37403.56      -48196.994     -2455.4775      0.24002972     35.25          0.00096011887
    142000   432.42373     -37797.831     -48355.809     -2161.7475      0.20770189     35.5           0.00083080757
    143000   436.1676      -37401.934     -48051.321     -2153.8003      0.21133545     35.75          0.0008453418 
    144000   432.10144     -37780.811     -48330.92      -2158.1547      0.21380695     36             0.00085522779
    145000   431.69822     -37601.547     -48141.811     -2308.2409      0.22297037     36.25          0.00089188147
    146000   431.95161     -37665.68      -48212.13      -2173.2557      0.21499729     36.5           0.00085998917
    147000   429.30982     -37717.595     -48199.544     -2253.9099      0.22432235     36.75          0.00089728938
    148000   428.12397     -37691.922     -48144.918     -2531.1647      0.24645313     37             0.00098581251
    149000   431.60769     -37601.05      -48139.104     -2404.4135      0.23751916     37.25          0.00095007663
    150000   430.27485     -37684.6       -48190.111     -2297.7463      0.22722581     37.5           0.00090890325
Loop time of 45.0225 on 56 procs for 10000 steps with 12288 atoms

Performance: 19.190 ns/day, 1.251 hours/ns, 222.111 timesteps/s, 2.729 Matom-step/s
99.8% CPU use with 56 MPI tasks x no OpenMP threads

MPI task timing breakdown:
Section |  min time  |  avg time  |  max time  |%varavg| %total
---------------------------------------------------------------
Pair    | 18.874     | 20.046     | 21.148     |  11.6 | 44.52
Bond    | 0.0013609  | 0.0026363  | 0.0038002  |   0.9 |  0.01
Kspace  | 10.85      | 11.92      | 13.117     |  14.9 | 26.48
Neigh   | 4.4485     | 4.4513     | 4.4539     |   0.1 |  9.89
Comm    | 1.5458     | 1.6418     | 1.7943     |   4.2 |  3.65
Output  | 0.022775   | 0.039783   | 0.056089   |   5.0 |  0.09
Modify  | 5.1475     | 5.6682     | 6.6667     |  14.8 | 12.59
Other   |            | 1.253      |            |       |  2.78

Nlocal:        219.429 ave         237 max         203 min
Histogram: 4 5 4 8 7 8 8 5 5 2
Nghost:        7265.88 ave        7340 max        7177 min
Histogram: 2 2 3 9 9 7 11 4 5 4
Neighs:        96070.7 ave      105548 max       88341 min
Histogram: 6 4 5 9 10 5 8 5 2 2

Total # of neighbors = 5379959
Ave neighs/atom = 437.82218
Ave special neighs/atom = 2
Neighbor list builds = 378
Dangerous builds = 0
kspace_style pppm/tip4p 1.0e-5
next nloop
jump SELF loop_start
run 10000 # 10ps
PPPM initialization ...
  extracting TIP4P info from pair style
  using 12-bit tables for long-range coulomb
  G vector (1/distance) = 0.32815664
  grid = 50 75 50
  stencil order = 5
  estimated absolute RMS force accuracy = 0.0035802102
  estimated relative force accuracy = 1.0781697e-05
  using double precision KISS FFT
  3d grid and FFT values/proc = 15776 4000
Generated 0 of 1 mixed pair_coeff terms from geometric mixing rule
Per MPI rank memory allocation (min/avg/max) = 11.21 | 11.35 | 11.45 Mbytes
   Step          Temp          TotEng         PotEng          Pxy           v_sxy         v_strain     v_viscosity  
    150000   430.42856     -37682.3       -48191.564     -1789.6776      0.17508482     37.5           0.00070033927
    151000   427.78907     -37783.277     -48228.096     -2309.6293      0.22710369     37.75          0.00090841477
    152000   434.11931     -37596.366     -48195.742     -2182.731       0.21145229     38             0.00084580917
    153000   427.9942      -37714.041     -48163.869     -2098.1269      0.20635847     38.25          0.00082543386
    154000   433.94788     -37466.967     -48062.158     -2507.268       0.24406161     38.5           0.00097624646
    155000   434.9515      -37626.001     -48245.696     -1905.5839      0.18219646     38.75          0.00072878584
    156000   431.70466     -37737.972     -48278.393     -2321.0151      0.23051008     39             0.00092204032
    157000   430.21159     -37632.275     -48136.242     -2002.1017      0.20072188     39.25          0.00080288753
    158000   430.17528     -37617.144     -48120.224     -2216.1514      0.21625641     39.5           0.00086502565
    159000   436.69651     -37561.137     -48223.438     -1908.8598      0.18468231     39.75          0.00073872925
    160000   435.16685     -37484.468     -48109.422     -2250.9983      0.22227248     40             0.00088908993
Loop time of 52.5654 on 56 procs for 10000 steps with 12288 atoms

Performance: 16.437 ns/day, 1.460 hours/ns, 190.239 timesteps/s, 2.338 Matom-step/s
99.8% CPU use with 56 MPI tasks x no OpenMP threads

MPI task timing breakdown:
Section |  min time  |  avg time  |  max time  |%varavg| %total
---------------------------------------------------------------
Pair    | 19.095     | 20.307     | 21.467     |  11.4 | 38.63
Bond    | 0.0015931  | 0.0031241  | 0.0042053  |   1.0 |  0.01
Kspace  | 15.078     | 16.122     | 17.432     |  13.4 | 30.67
Neigh   | 4.5511     | 4.5547     | 4.5572     |   0.1 |  8.66
Comm    | 1.6543     | 1.8135     | 2.0449     |   5.9 |  3.45
Output  | 0.023104   | 0.040042   | 0.056367   |   4.9 |  0.08
Modify  | 7.3553     | 8.073      | 9.4755     |  17.9 | 15.36
Other   |            | 1.652      |            |       |  3.14

Nlocal:        219.429 ave         240 max         198 min
Histogram: 2 1 3 9 16 8 8 4 3 2
Nghost:        6834.89 ave        6893 max        6773 min
Histogram: 2 4 6 10 5 6 8 8 5 2
Neighs:        96069.1 ave      106847 max       85270 min
Histogram: 2 1 4 8 16 11 3 5 4 2

Total # of neighbors = 5379867
Ave neighs/atom = 437.8147
Ave special neighs/atom = 2
Neighbor list builds = 385
Dangerous builds = 0
kspace_style pppm/tip4p 1.0e-5
next nloop
jump SELF loop_start
run 10000 # 10ps
PPPM initialization ...
  extracting TIP4P info from pair style
  using 12-bit tables for long-range coulomb
  G vector (1/distance) = 0.32815664
  grid = 50 50 50
  stencil order = 5
  estimated absolute RMS force accuracy = 0.0035802102
  estimated relative force accuracy = 1.0781697e-05
  using double precision KISS FFT
  3d grid and FFT values/proc = 11424 2800
Generated 0 of 1 mixed pair_coeff terms from geometric mixing rule
Per MPI rank memory allocation (min/avg/max) = 10.92 | 11.04 | 11.12 Mbytes
   Step          Temp          TotEng         PotEng          Pxy           v_sxy         v_strain     v_viscosity  
    160000   435.22839     -37478.943     -48105.399     -1770.4077      0.17307446     40             0.00069229785
    161000   434.476       -37594.865     -48202.95      -2262.7924      0.22340326     40.25          0.00089361304
    162000   434.15198     -37589.86      -48190.034     -2171.9845      0.21049888     40.5           0.00084199552
    163000   435.77232     -37572.952     -48212.689     -2053.165       0.20146849     40.75          0.00080587395
    164000   431.94244     -37473.914     -48020.141     -1737.1586      0.17068979     41             0.00068275915
    165000   433.34493     -37598.408     -48178.878     -2010.823       0.19788319     41.25          0.00079153277
    166000   428.88184     -37669.595     -48141.095     -2278.5246      0.22264964     41.5           0.00089059856
    167000   427.20724     -37811.434     -48242.047     -2062.6748      0.20735986     41.75          0.00082943945
    168000   429.28627     -37774.928     -48256.302     -1983.797       0.19646379     42             0.00078585516
    169000   427.16164     -37781.184     -48210.684     -2163.3169      0.21426134     42.25          0.00085704536
    170000   429.84445     -37752.707     -48247.709     -2069.8127      0.20676698     42.5           0.00082706794
Loop time of 44.9348 on 56 procs for 10000 steps with 12288 atoms

Performance: 19.228 ns/day, 1.248 hours/ns, 222.545 timesteps/s, 2.735 Matom-step/s
99.8% CPU use with 56 MPI tasks x no OpenMP threads

MPI task timing breakdown:
Section |  min time  |  avg time  |  max time  |%varavg| %total
---------------------------------------------------------------
Pair    | 18.743     | 20.005     | 21.09      |   9.0 | 44.52
Bond    | 0.0013092  | 0.0026444  | 0.0037799  |   0.9 |  0.01
Kspace  | 10.829     | 11.82      | 13.101     |  11.5 | 26.30
Neigh   | 4.4904     | 4.4931     | 4.4963     |   0.1 | 10.00
Comm    | 1.5355     | 1.639      | 1.7908     |   4.4 |  3.65
Output  | 0.022819   | 0.040013   | 0.056431   |   5.0 |  0.09
Modify  | 5.1396     | 5.6616     | 6.68       |  14.6 | 12.60
Other   |            | 1.274      |            |       |  2.83

Nlocal:        219.429 ave         237 max         200 min
Histogram: 1 6 3 5 6 15 7 9 1 3
Nghost:        7270.07 ave        7349 max        7179 min
Histogram: 1 3 5 6 11 11 3 5 9 2
Neighs:        96050.6 ave      104175 max       86684 min
Histogram: 1 5 4 7 6 10 7 10 3 3

Total # of neighbors = 5378833
Ave neighs/atom = 437.73055
Ave special neighs/atom = 2
Neighbor list builds = 382
Dangerous builds = 0
kspace_style pppm/tip4p 1.0e-5
next nloop
jump SELF loop_start
run 10000 # 10ps
PPPM initialization ...
  extracting TIP4P info from pair style
  using 12-bit tables for long-range coulomb
  G vector (1/distance) = 0.32815664
  grid = 50 75 50
  stencil order = 5
  estimated absolute RMS force accuracy = 0.0035802102
  estimated relative force accuracy = 1.0781697e-05
  using double precision KISS FFT
  3d grid and FFT values/proc = 15776 4000
Generated 0 of 1 mixed pair_coeff terms from geometric mixing rule
Per MPI rank memory allocation (min/avg/max) = 11.21 | 11.35 | 11.45 Mbytes
   Step          Temp          TotEng         PotEng          Pxy           v_sxy         v_strain     v_viscosity  
    170000   430.61673     -37733.718     -48247.576     -1530.126       0.15103058     42.5           0.0006041223 
    171000   428.73405     -37829.706     -48297.597     -1893.8662      0.19012954     42.75          0.00076051815
    172000   434.61578     -37515.978     -48127.477     -2264.7731      0.21965977     43             0.00087863906
    173000   432.84643     -37775.552     -48343.85      -2033.0915      0.19693367     43.25          0.00078773468
    174000   427.89564     -37691.577     -48138.998     -2238.598       0.2277355      43.5           0.00091094199
    175000   432.44916     -37654.637     -48213.236     -2396.8952      0.23306632     43.75          0.0009322653 
    176000   434.82196     -37612.907     -48229.44      -1920.6101      0.19064474     44             0.00076257897
    177000   430.23626     -37577.798     -48082.367     -2205.5001      0.21622804     44.25          0.00086491215
    178000   426.30893     -37840.345     -48249.025     -2098.6298      0.20769395     44.5           0.0008307758 
    179000   432.5502      -37598.784     -48159.85      -2004.9397      0.19643193     44.75          0.00078572772
    180000   432.81944     -37646.34      -48213.979     -2254.8762      0.22546846     45             0.00090187385
Loop time of 52.5456 on 56 procs for 10000 steps with 12288 atoms

Performance: 16.443 ns/day, 1.460 hours/ns, 190.311 timesteps/s, 2.339 Matom-step/s
99.8% CPU use with 56 MPI tasks x no OpenMP threads

MPI task timing breakdown:
Section |  min time  |  avg time  |  max time  |%varavg| %total
---------------------------------------------------------------
Pair    | 19.228     | 20.275     | 21.21      |  10.9 | 38.58
Bond    | 0.0016493  | 0.0031251  | 0.0046047  |   1.0 |  0.01
Kspace  | 14.992     | 16.135     | 17.263     |  12.1 | 30.71
Neigh   | 4.556      | 4.5593     | 4.5619     |   0.1 |  8.68
Comm    | 1.6924     | 1.8334     | 2.0543     |   6.0 |  3.49
Output  | 0.022513   | 0.039471   | 0.055763   |   5.0 |  0.08
Modify  | 7.3523     | 8.0619     | 9.4385     |  17.6 | 15.34
Other   |            | 1.638      |            |       |  3.12

Nlocal:        219.429 ave         240 max         205 min
Histogram: 6 6 5 8 11 9 3 3 4 1
Nghost:        6857.66 ave        6930 max        6807 min
Histogram: 2 7 9 10 8 10 5 4 0 1
Neighs:        96056.5 ave      104897 max       89344 min
Histogram: 3 9 4 8 15 6 3 1 4 3

Total # of neighbors = 5379162
Ave neighs/atom = 437.75732
Ave special neighs/atom = 2
Neighbor list builds = 382
Dangerous builds = 0
kspace_style pppm/tip4p 1.0e-5
next nloop
jump SELF loop_start
run 10000 # 10ps
PPPM initialization ...
  extracting TIP4P info from pair style
  using 12-bit tables for long-range coulomb
  G vector (1/distance) = 0.32815664
  grid = 50 50 50
  stencil order = 5
  estimated absolute RMS force accuracy = 0.0035802102
  estimated relative force accuracy = 1.0781697e-05
  using double precision KISS FFT
  3d grid and FFT values/proc = 11424 2800
Generated 0 of 1 mixed pair_coeff terms from geometric mixing rule
Per MPI rank memory allocation (min/avg/max) = 10.92 | 11.04 | 11.12 Mbytes
   Step          Temp          TotEng         PotEng          Pxy           v_sxy         v_strain     v_viscosity  
    180000   433.01072     -37638.859     -48211.169     -1702.9902      0.16943059     45             0.00067772237
    181000   428.74526     -37730.385     -48198.55      -2227.9777      0.21974141     45.25          0.00087896563
    182000   428.58692     -37861.709     -48326.008     -2253.1594      0.22438221     45.5           0.00089752886
    183000   431.06786     -37580.596     -48105.47      -2283.1414      0.22389296     45.75          0.00089557183
    184000   430.23372     -37637.214     -48141.72      -2452.4593      0.23735513     46             0.00094942053
    185000   429.81389     -37668.999     -48163.255     -2127.7889      0.20645333     46.25          0.00082581333
    186000   425.43954     -37753.79      -48141.243     -2401.4716      0.23974289     46.5           0.00095897156
    187000   428.11929     -37840.057     -48292.939     -2234.8435      0.21182839     46.75          0.00084731357
    188000   431.5382      -37466.249     -48002.606     -2184.4357      0.2147623      47             0.0008590492 
    189000   428.84383     -37670.434     -48141.005     -2031.177       0.20817601     47.25          0.00083270406
    190000   437.71164     -37460.576     -48147.663     -2047.1752      0.20470788     47.5           0.00081883153
Loop time of 44.9705 on 56 procs for 10000 steps with 12288 atoms

Performance: 19.213 ns/day, 1.249 hours/ns, 222.368 timesteps/s, 2.732 Matom-step/s
99.8% CPU use with 56 MPI tasks x no OpenMP threads

MPI task timing breakdown:
Section |  min time  |  avg time  |  max time  |%varavg| %total
---------------------------------------------------------------
Pair    | 18.692     | 20.007     | 21.061     |  10.9 | 44.49
Bond    | 0.0013702  | 0.0026251  | 0.0040625  |   1.0 |  0.01
Kspace  | 10.866     | 11.822     | 13.096     |  13.7 | 26.29
Neigh   | 4.5226     | 4.5251     | 4.528      |   0.1 | 10.06
Comm    | 1.5461     | 1.6381     | 1.7996     |   4.3 |  3.64
Output  | 0.022757   | 0.03987    | 0.056353   |   5.0 |  0.09
Modify  | 5.1382     | 5.6635     | 6.6942     |  14.7 | 12.59
Other   |            | 1.272      |            |       |  2.83

Nlocal:        219.429 ave         236 max         200 min
Histogram: 3 2 3 8 10 6 8 6 5 5
Nghost:        7287.77 ave        7367 max        7199 min
Histogram: 1 3 5 7 13 8 3 8 4 4
Neighs:        96054.1 ave      104675 max       86591 min
Histogram: 3 2 4 11 6 8 6 8 2 6

Total # of neighbors = 5379027
Ave neighs/atom = 437.74634
Ave special neighs/atom = 2
Neighbor list builds = 384
Dangerous builds = 0
kspace_style pppm/tip4p 1.0e-5
next nloop
jump SELF loop_start
run 10000 # 10ps
PPPM initialization ...
  extracting TIP4P info from pair style
  using 12-bit tables for long-range coulomb
  G vector (1/distance) = 0.32815664
  grid = 50 75 50
  stencil order = 5
  estimated absolute RMS force accuracy = 0.0035802102
  estimated relative force accuracy = 1.0781697e-05
  using double precision KISS FFT
  3d grid and FFT values/proc = 15776 4000
Generated 0 of 1 mixed pair_coeff terms from geometric mixing rule
Per MPI rank memory allocation (min/avg/max) = 11.21 | 11.35 | 11.45 Mbytes
   Step          Temp          TotEng         PotEng          Pxy           v_sxy         v_strain     v_viscosity  
    190000   438.4083      -37444.165     -48148.261     -1637.3862      0.1623476      47.5           0.0006493904 
    191000   429.17793     -37817.7       -48296.429     -2492.9549      0.24925491     47.75          0.00099701962
    192000   432.34213     -37741.909     -48297.895     -2295.2198      0.22887654     48             0.00091550615
    193000   432.4919      -37591.727     -48151.369     -2418.5535      0.23560612     48.25          0.00094242447
    194000   432.47721     -37463.486     -48022.77      -1951           0.19111181     48.5           0.00076444724
    195000   436.91816     -37614.37      -48282.083     -1765.1165      0.17002067     48.75          0.00068008266
    196000   430.52536     -37668.156     -48179.784     -2250.5202      0.22541286     49             0.00090165144
    197000   428.97158     -37719.898     -48193.588     -2172.5177      0.20688084     49.25          0.00082752335
    198000   429.70462     -37654.613     -48146.201     -2192.8623      0.21574739     49.5           0.00086298958
    199000   430.45891     -37724.569     -48234.575     -1910.8814      0.18824792     49.75          0.00075299167
    200000   433.21866     -37717.276     -48294.663     -2199.6032      0.21422294     50             0.00085689176
Loop time of 52.4413 on 56 procs for 10000 steps with 12288 atoms

Performance: 16.476 ns/day, 1.457 hours/ns, 190.689 timesteps/s, 2.343 Matom-step/s
99.8% CPU use with 56 MPI tasks x no OpenMP threads

MPI task timing breakdown:
Section |  min time  |  avg time  |  max time  |%varavg| %total
---------------------------------------------------------------
Pair    | 18.932     | 20.24      | 21.376     |  10.3 | 38.59
Bond    | 0.0015166  | 0.0031144  | 0.0048451  |   1.1 |  0.01
Kspace  | 14.938     | 16.102     | 17.187     |  11.2 | 30.71
Neigh   | 4.5514     | 4.5557     | 4.5585     |   0.1 |  8.69
Comm    | 1.6854     | 1.8105     | 2.0157     |   5.8 |  3.45
Output  | 0.023052   | 0.04015    | 0.056515   |   4.9 |  0.08
Modify  | 7.3429     | 8.0559     | 9.4264     |  17.6 | 15.36
Other   |            | 1.634      |            |       |  3.12

Nlocal:        219.429 ave         243 max         200 min
Histogram: 5 3 8 8 4 13 9 2 3 1
Nghost:        6834.88 ave        6924 max        6786 min
Histogram: 6 8 10 12 8 6 3 0 1 2
Neighs:        96076.4 ave      106400 max       86867 min
Histogram: 3 8 4 6 6 10 11 4 2 2

Total # of neighbors = 5380281
Ave neighs/atom = 437.84839
Ave special neighs/atom = 2
Neighbor list builds = 385
Dangerous builds = 0
kspace_style pppm/tip4p 1.0e-5
next nloop
jump SELF loop_start
run 10000 # 10ps
PPPM initialization ...
  extracting TIP4P info from pair style
  using 12-bit tables for long-range coulomb
  G vector (1/distance) = 0.32815664
  grid = 50 50 50
  stencil order = 5
  estimated absolute RMS force accuracy = 0.0035802102
  estimated relative force accuracy = 1.0781697e-05
  using double precision KISS FFT
  3d grid and FFT values/proc = 11424 2800
Generated 0 of 1 mixed pair_coeff terms from geometric mixing rule
Per MPI rank memory allocation (min/avg/max) = 10.92 | 11.04 | 11.12 Mbytes
   Step          Temp          TotEng         PotEng          Pxy           v_sxy         v_strain     v_viscosity  
    200000   433.31        -37716.151     -48295.768     -1729.8119      0.1659759      50             0.0006639036 
    201000   428.96748     -37804.787     -48278.377     -2361.7826      0.23733761     50.25          0.00094935044
    202000   427.3474      -37662.371     -48096.406     -2263.478       0.22037736     50.5           0.00088150944
    203000   424.93673     -37903.936     -48279.112     -2193.3933      0.21487625     50.75          0.000859505  
    204000   430.26471     -37642.413     -48147.676     -2271.0906      0.22414319     51             0.00089657278
    205000   431.33496     -37668.663     -48200.058     -2084.2348      0.20496473     51.25          0.00081985892
    206000   421.02449     -37937.709     -48217.365     -2349.3724      0.23120605     51.5           0.0009248242 
    207000   429.61258     -37609.258     -48098.599     -2158.8108      0.2141964      51.75          0.00085678561
    208000   427.56259     -37893.293     -48332.582     -2165.6164      0.20857295     52             0.00083429179
    209000   428.96315     -37549.23      -48022.716     -2313.5298      0.22808665     52.25          0.00091234661
    210000   428.33343     -37800.204     -48258.314     -1754.3916      0.17433181     52.5           0.00069732723
Loop time of 45.0673 on 56 procs for 10000 steps with 12288 atoms

Performance: 19.171 ns/day, 1.252 hours/ns, 221.890 timesteps/s, 2.727 Matom-step/s
99.8% CPU use with 56 MPI tasks x no OpenMP threads

MPI task timing breakdown:
Section |  min time  |  avg time  |  max time  |%varavg| %total
---------------------------------------------------------------
Pair    | 18.634     | 19.991     | 21.09      |  11.8 | 44.36
Bond    | 0.0014175  | 0.0026439  | 0.0037938  |   1.0 |  0.01
Kspace  | 10.829     | 11.951     | 13.304     |  15.3 | 26.52
Neigh   | 4.4964     | 4.4997     | 4.5018     |   0.1 |  9.98
Comm    | 1.5552     | 1.6424     | 1.8006     |   4.1 |  3.64
Output  | 0.022718   | 0.039834   | 0.056238   |   5.0 |  0.09
Modify  | 5.1725     | 5.67       | 6.6862     |  14.5 | 12.58
Other   |            | 1.271      |            |       |  2.82

Nlocal:        219.429 ave         239 max         197 min
Histogram: 1 1 2 7 9 20 8 3 3 2
Nghost:        7266.11 ave        7370 max        7187 min
Histogram: 4 8 3 9 13 3 8 4 2 2
Neighs:        96071.7 ave      107214 max       84221 min
Histogram: 1 1 4 5 15 13 12 2 2 1

Total # of neighbors = 5380015
Ave neighs/atom = 437.82674
Ave special neighs/atom = 2
Neighbor list builds = 381
Dangerous builds = 0
kspace_style pppm/tip4p 1.0e-5
next nloop
jump SELF loop_start
run 10000 # 10ps
PPPM initialization ...
  extracting TIP4P info from pair style
  using 12-bit tables for long-range coulomb
  G vector (1/distance) = 0.32815664
  grid = 50 75 50
  stencil order = 5
  estimated absolute RMS force accuracy = 0.0035802102
  estimated relative force accuracy = 1.0781697e-05
  using double precision KISS FFT
  3d grid and FFT values/proc = 15776 4000
Generated 0 of 1 mixed pair_coeff terms from geometric mixing rule
Per MPI rank memory allocation (min/avg/max) = 11.21 | 11.35 | 11.45 Mbytes
   Step          Temp          TotEng         PotEng          Pxy           v_sxy         v_strain     v_viscosity  
    210000   428.30418     -37802.47      -48259.866     -1307.9151      0.12886675     52.5           0.00051546701
    211000   426.61136     -37792.387     -48208.451     -2082.7414      0.21261582     52.75          0.00085046328
    212000   431.91085     -37632.327     -48177.783     -1944.2553      0.19276775     53             0.00077107102
    213000   433.78388     -37637.6       -48228.787     -2044.1833      0.20619274     53.25          0.00082477095
    214000   433.40138     -37618.765     -48200.612     -2242.6972      0.21800629     53.5           0.00087202517
    215000   433.10896     -37633.177     -48207.885     -2053.0901      0.20227853     53.75          0.00080911412
    216000   426.98155     -37840.958     -48266.061     -2136.8689      0.21100447     54             0.00084401787
    217000   431.18235     -37675.083     -48202.751     -2278.6915      0.22652839     54.25          0.00090611354
    218000   424.18796     -37742.865     -48099.759     -2063.941       0.19994907     54.5           0.00079979629
    219000   433.70806     -37594.605     -48183.941     -2099.789       0.19993357     54.75          0.00079973429
    220000   429.76275     -37742.259     -48235.266     -2172.6209      0.21229095     55             0.0008491638 
Loop time of 52.3884 on 56 procs for 10000 steps with 12288 atoms

Performance: 16.492 ns/day, 1.455 hours/ns, 190.882 timesteps/s, 2.346 Matom-step/s
99.8% CPU use with 56 MPI tasks x no OpenMP threads

MPI task timing breakdown:
Section |  min time  |  avg time  |  max time  |%varavg| %total
---------------------------------------------------------------
Pair    | 19.18      | 20.25      | 20.999     |   8.5 | 38.65
Bond    | 0.0018499  | 0.0030831  | 0.0041996  |   1.0 |  0.01
Kspace  | 15.411     | 16.09      | 17.052     |   9.5 | 30.71
Neigh   | 4.5121     | 4.516      | 4.5187     |   0.1 |  8.62
Comm    | 1.655      | 1.81       | 2.0085     |   5.6 |  3.45
Output  | 0.022692   | 0.039761   | 0.056178   |   5.0 |  0.08
Modify  | 7.3317     | 8.0491     | 9.422      |  17.8 | 15.36
Other   |            | 1.631      |            |       |  3.11

Nlocal:        219.429 ave         235 max         197 min
Histogram: 1 1 2 8 5 11 15 2 3 8
Nghost:         6846.2 ave        6926 max        6776 min
Histogram: 3 5 4 7 17 7 3 1 5 4
Neighs:        96035.8 ave      103340 max       86669 min
Histogram: 2 2 6 4 9 6 14 2 4 7

Total # of neighbors = 5378006
Ave neighs/atom = 437.66325
Ave special neighs/atom = 2
Neighbor list builds = 383
Dangerous builds = 0
kspace_style pppm/tip4p 1.0e-5
next nloop
jump SELF loop_start
run 10000 # 10ps
PPPM initialization ...
  extracting TIP4P info from pair style
  using 12-bit tables for long-range coulomb
  G vector (1/distance) = 0.32815664
  grid = 50 50 50
  stencil order = 5
  estimated absolute RMS force accuracy = 0.0035802102
  estimated relative force accuracy = 1.0781697e-05
  using double precision KISS FFT
  3d grid and FFT values/proc = 11424 2800
Generated 0 of 1 mixed pair_coeff terms from geometric mixing rule
Per MPI rank memory allocation (min/avg/max) = 10.92 | 11.04 | 11.12 Mbytes
   Step          Temp          TotEng         PotEng          Pxy           v_sxy         v_strain     v_viscosity  
    220000   429.65439     -37745.363     -48235.726     -1710.0543      0.16459729     55             0.00065838914
    221000   431.3614      -37580.914     -48112.954     -2305.9892      0.22689687     55.25          0.00090758749
    222000   430.78968     -37735.802     -48253.884     -1997.9973      0.19501263     55.5           0.00078005051
    223000   432.25101     -37657.786     -48211.547     -1817.1775      0.17463443     55.75          0.00069853771
    224000   430.75675     -37676.384     -48193.661     -2103.4773      0.21281979     56             0.00085127914
    225000   432.0048      -37601.263     -48149.012     -2238.4338      0.22071561     56.25          0.00088286245
    226000   430.41381     -37679.936     -48188.84      -1987.8434      0.19253869     56.5           0.00077015477
    227000   429.60832     -37763.088     -48252.325     -2065.2701      0.19978083     56.75          0.00079912331
    228000   430.56359     -37576.758     -48089.319     -2179.7131      0.21158123     57             0.00084632491
    229000   427.90709     -37663.44      -48111.14      -2441.3889      0.24259464     57.25          0.00097037857
    230000   428.87714     -37680.102     -48151.487     -2243.2208      0.2232278      57.5           0.00089291121
Loop time of 45.0927 on 56 procs for 10000 steps with 12288 atoms

Performance: 19.161 ns/day, 1.253 hours/ns, 221.765 timesteps/s, 2.725 Matom-step/s
99.8% CPU use with 56 MPI tasks x no OpenMP threads

MPI task timing breakdown:
Section |  min time  |  avg time  |  max time  |%varavg| %total
---------------------------------------------------------------
Pair    | 19.062     | 19.981     | 20.963     |  11.7 | 44.31
Bond    | 0.0013203  | 0.0026296  | 0.003931   |   1.0 |  0.01
Kspace  | 10.894     | 11.963     | 12.906     |  15.1 | 26.53
Neigh   | 4.5356     | 4.5383     | 4.5412     |   0.1 | 10.06
Comm    | 1.5615     | 1.65       | 1.7759     |   4.5 |  3.66
Output  | 0.022812   | 0.03993    | 0.056377   |   5.0 |  0.09
Modify  | 5.1566     | 5.6678     | 6.6632     |  14.6 | 12.57
Other   |            | 1.25       |            |       |  2.77

[...]

Total # of neighbors = 5381354
Ave neighs/atom = 437.93571
Ave special neighs/atom = 2
Neighbor list builds = 384
Dangerous builds = 0
kspace_style pppm/tip4p 1.0e-5
next nloop
jump SELF loop_start
run 10000 # 10ps
PPPM initialization ...
  extracting TIP4P info from pair style
  using 12-bit tables for long-range coulomb
  G vector (1/distance) = 0.32815664
  grid = 50 50 50
  stencil order = 5
  estimated absolute RMS force accuracy = 0.0035802102
  estimated relative force accuracy = 1.0781697e-05
  using double precision KISS FFT
  3d grid and FFT values/proc = 11424 2800
Generated 0 of 1 mixed pair_coeff terms from geometric mixing rule
Per MPI rank memory allocation (min/avg/max) = 10.92 | 11.04 | 11.13 Mbytes
   Step          Temp          TotEng         PotEng          Pxy           v_sxy         v_strain     v_viscosity  
   1940000   428.31055     -37830.286     -48287.838     -1685.0442      0.16414196     485            0.00065656786
   1941000   430.01114     -37830.027     -48329.099     -2328.46        0.23101539     485.25         0.00092406157
   1942000   429.88367     -37685.279     -48181.24      -1736.3695      0.17438719     485.5          0.00069754876
   1943000   431.3227      -37500.421     -48031.516     -2188.8633      0.20935693     485.75         0.00083742772
   1944000   434.2494      -37600.576     -48203.13      -1941.3341      0.19264997     486            0.00077059988
   1945000   432.72464     -37640.202     -48205.527     -1980.996       0.19525835     486.25         0.00078103341
   1946000   433.40503     -37703.269     -48285.206     -2019.7335      0.19615543     486.5          0.00078462173
   1947000   433.80718     -37621.194     -48212.95      -2344.0593      0.22876075     486.75         0.00091504301
   1948000   425.07622     -37913.017     -48291.599     -2301.2489      0.22697938     487            0.00090791752
   1949000   423.60985     -37849.796     -48192.575     -1981.3675      0.19853916     487.25         0.00079415664
   1950000   427.01043     -37773.736     -48199.544     -2057.1653      0.19869884     487.5          0.00079479535
Loop time of 44.2232 on 56 procs for 10000 steps with 12288 atoms

Performance: 19.537 ns/day, 1.228 hours/ns, 226.126 timesteps/s, 2.779 Matom-step/s
99.8% CPU use with 56 MPI tasks x no OpenMP threads

MPI task timing breakdown:
Section |  min time  |  avg time  |  max time  |%varavg| %total
---------------------------------------------------------------
Pair    | 18.464     | 19.374     | 20.311     |  10.0 | 43.81
Bond    | 0.001194   | 0.0021063  | 0.0033453  |   0.8 |  0.00
Kspace  | 10.779     | 11.75      | 12.624     |  12.3 | 26.57
Neigh   | 4.4925     | 4.4951     | 4.4975     |   0.0 | 10.16
Comm    | 1.5416     | 1.6252     | 1.7802     |   4.3 |  3.68
Output  | 0.023452   | 0.040763   | 0.057608   |   5.0 |  0.09
Modify  | 5.1465     | 5.664      | 6.6838     |  14.6 | 12.81
Other   |            | 1.272      |            |       |  2.88

Nlocal:        219.429 ave         239 max         204 min
Histogram: 7 1 11 7 7 5 7 7 2 2
Nghost:        7257.34 ave        7315 max        7194 min
Histogram: 3 2 4 6 6 14 8 8 4 1
Neighs:        96058.8 ave      106020 max       88042 min
Histogram: 3 5 11 7 6 8 8 5 1 2

Total # of neighbors = 5379294
Ave neighs/atom = 437.76807
Ave special neighs/atom = 2
Neighbor list builds = 380
Dangerous builds = 0
kspace_style pppm/tip4p 1.0e-5
next nloop
jump SELF loop_start
run 10000 # 10ps
PPPM initialization ...
  extracting TIP4P info from pair style
  using 12-bit tables for long-range coulomb
  G vector (1/distance) = 0.32815664
  grid = 50 75 50
  stencil order = 5
  estimated absolute RMS force accuracy = 0.0035802102
  estimated relative force accuracy = 1.0781697e-05
  using double precision KISS FFT
  3d grid and FFT values/proc = 15776 4000
Generated 0 of 1 mixed pair_coeff terms from geometric mixing rule
Per MPI rank memory allocation (min/avg/max) = 11.21 | 11.35 | 11.45 Mbytes
   Step          Temp          TotEng         PotEng          Pxy           v_sxy         v_strain     v_viscosity  
   1950000   427.76605     -37756.196     -48200.453     -1602.7158      0.15188221     487.5          0.00060752885
   1951000   425.19716     -37690.05      -48071.585     -1995.7694      0.19937928     487.75         0.00079751712
   1952000   426.02859     -37995.798     -48397.633     -2217.8241      0.21479078     488            0.00085916314
   1953000   428.89631     -37730.115     -48201.968     -2046.2057      0.19568072     488.25         0.00078272288
   1954000   430.30382     -37602.894     -48109.112     -2396.9267      0.23437571     488.5          0.00093750285
   1955000   426.04167     -37647.688     -48049.843     -2004.5512      0.19922608     488.75         0.0007969043 
   1956000   436.82521     -37385.026     -48050.469     -1778.4361      0.17309396     489            0.00069237586
   1957000   427.94731     -37776.448     -48225.13      -1859.1004      0.17768228     489.25         0.00071072912
   1958000   428.37575     -37747.898     -48207.041     -1927.4247      0.18645633     489.5          0.00074582531
   1959000   430.57098     -37791.171     -48303.913     -1997.4468      0.20110875     489.75         0.00080443499
   1960000   431.24163     -37711.748     -48240.864     -2079.08        0.2068967      490            0.00082758682
Loop time of 51.8214 on 56 procs for 10000 steps with 12288 atoms

Performance: 16.673 ns/day, 1.439 hours/ns, 192.970 timesteps/s, 2.371 Matom-step/s
99.8% CPU use with 56 MPI tasks x no OpenMP threads

MPI task timing breakdown:
Section |  min time  |  avg time  |  max time  |%varavg| %total
---------------------------------------------------------------
Pair    | 18.406     | 19.639     | 20.889     |  10.7 | 37.90
Bond    | 0.0015707  | 0.0024036  | 0.003811   |   0.9 |  0.00
Kspace  | 14.681     | 16.049     | 17.325     |  11.7 | 30.97
Neigh   | 4.5319     | 4.5347     | 4.5374     |   0.1 |  8.75
Comm    | 1.6717     | 1.8085     | 1.9988     |   5.6 |  3.49
Output  | 0.023827   | 0.04097    | 0.057606   |   4.9 |  0.08
Modify  | 7.3322     | 8.04       | 9.4435     |  18.0 | 15.51
Other   |            | 1.706      |            |       |  3.29

Nlocal:        219.429 ave         241 max         198 min
Histogram: 1 2 5 9 8 13 13 4 0 1
Nghost:        6846.77 ave        6910 max        6784 min
Histogram: 3 6 4 10 7 4 7 4 6 5
Neighs:        96063.8 ave      107927 max       86372 min
Histogram: 2 3 8 7 11 14 10 0 0 1

Total # of neighbors = 5379573
Ave neighs/atom = 437.79077
Ave special neighs/atom = 2
Neighbor list builds = 383
Dangerous builds = 0
kspace_style pppm/tip4p 1.0e-5
next nloop
jump SELF loop_start
run 10000 # 10ps
PPPM initialization ...
  extracting TIP4P info from pair style
  using 12-bit tables for long-range coulomb
  G vector (1/distance) = 0.32815664
  grid = 50 50 50
  stencil order = 5
  estimated absolute RMS force accuracy = 0.0035802102
  estimated relative force accuracy = 1.0781697e-05
  using double precision KISS FFT
  3d grid and FFT values/proc = 11424 2800
Generated 0 of 1 mixed pair_coeff terms from geometric mixing rule
Per MPI rank memory allocation (min/avg/max) = 10.92 | 11.04 | 11.13 Mbytes
   Step          Temp          TotEng         PotEng          Pxy           v_sxy         v_strain     v_viscosity  
   1960000   431.5821      -37704.185     -48241.613     -1600.3358      0.15810585     490            0.0006324234 
   1961000   436.337       -37471.139     -48124.663     -2238.4523      0.22027442     490.25         0.00088109768
   1962000   435.0999      -37649.363     -48272.681     -2341.4598      0.23293639     490.5          0.00093174557
   1963000   433.75246     -37798.489     -48388.909     -1797.1596      0.17975762     490.75         0.00071903049
   1964000   428.75755     -37770.478     -48238.943     -2244.256       0.22003225     491            0.00088012899
   1965000   433.82297     -37704.377     -48296.518     -1757.1955      0.17088739     491.25         0.00068354956
   1966000   436.48276     -37603.029     -48260.112     -2231.4832      0.22106511     491.5          0.00088426045
   1967000   436.47854     -37486.531     -48143.51      -2253.8345      0.22276079     491.75         0.00089104317
   1968000   436.39578     -37481.211     -48136.169     -2299.5232      0.223245       492            0.00089297999
   1969000   430.15595     -37614.556     -48117.164     -2220.0509      0.2221906      492.25         0.00088876238
   1970000   432.91413     -37505.91      -48075.861     -2100.7051      0.21056964     492.5          0.00084227855
Loop time of 44.286 on 56 procs for 10000 steps with 12288 atoms

Performance: 19.510 ns/day, 1.230 hours/ns, 225.805 timesteps/s, 2.775 Matom-step/s
99.8% CPU use with 56 MPI tasks x no OpenMP threads

MPI task timing breakdown:
Section |  min time  |  avg time  |  max time  |%varavg| %total
---------------------------------------------------------------
Pair    | 18.438     | 19.391     | 20.481     |  10.0 | 43.79
Bond    | 0.0012705  | 0.0020998  | 0.0032825  |   0.8 |  0.00
Kspace  | 10.776     | 11.736     | 12.6       |  11.9 | 26.50
Neigh   | 4.5437     | 4.5461     | 4.5481     |   0.1 | 10.27
Comm    | 1.5334     | 1.6318     | 1.7937     |   5.0 |  3.68
Output  | 0.023296   | 0.040657   | 0.057452   |   5.0 |  0.09
Modify  | 5.0936     | 5.6424     | 6.6864     |  15.1 | 12.74
Other   |            | 1.295      |            |       |  2.92

Nlocal:        219.429 ave         239 max         200 min
Histogram: 3 4 4 6 8 13 6 8 3 1
Nghost:        7293.23 ave        7368 max        7202 min
Histogram: 1 2 1 9 8 15 8 6 5 1
Neighs:        96056.3 ave      106984 max       86660 min
Histogram: 4 4 4 10 10 8 7 5 3 1

Total # of neighbors = 5379153
Ave neighs/atom = 437.75659
Ave special neighs/atom = 2
Neighbor list builds = 384
Dangerous builds = 0
kspace_style pppm/tip4p 1.0e-5
next nloop
jump SELF loop_start
run 10000 # 10ps
PPPM initialization ...
  extracting TIP4P info from pair style
  using 12-bit tables for long-range coulomb
  G vector (1/distance) = 0.32815664
  grid = 50 75 50
  stencil order = 5
  estimated absolute RMS force accuracy = 0.0035802102
  estimated relative force accuracy = 1.0781697e-05
  using double precision KISS FFT
  3d grid and FFT values/proc = 15776 4000
Generated 0 of 1 mixed pair_coeff terms from geometric mixing rule
Per MPI rank memory allocation (min/avg/max) = 11.21 | 11.35 | 11.45 Mbytes
   Step          Temp          TotEng         PotEng          Pxy           v_sxy         v_strain     v_viscosity  
   1970000   433.06571     -37502.049     -48075.702     -1600.1234      0.15869515     492.5          0.00063478062
   1971000   433.14999     -37531.837     -48107.547     -2000.2153      0.19913269     492.75         0.00079653077
   1972000   429.82479     -37811.667     -48306.189     -2123.5434      0.21011159     493            0.00084044638
   1973000   433.77331     -37528.985     -48119.914     -2598.1071      0.25867848     493.25         0.0010347139 
   1974000   433.88206     -37436.1       -48029.684     -2016.5894      0.20330661     493.5          0.00081322646
   1975000   432.50953     -37614.972     -48175.044     -2361.6744      0.23165501     493.75         0.00092662003
   1976000   430.17873     -37841.353     -48344.517     -1961.3191      0.19711869     494            0.00078847475
   1977000   431.52662     -37604.076     -48140.15      -2019.6084      0.19741124     494.25         0.00078964497
   1978000   437.98915     -37445.534     -48139.396     -2252.7181      0.22408081     494.5          0.00089632323
   1979000   434.85264     -37563.065     -48180.347     -1732.4866      0.17492867     494.75         0.00069971469
   1980000   436.08133     -37379.382     -48026.664     -2037.3325      0.2034531      495            0.0008138124 
Loop time of 51.6962 on 56 procs for 10000 steps with 12288 atoms

Performance: 16.713 ns/day, 1.436 hours/ns, 193.438 timesteps/s, 2.377 Matom-step/s
99.8% CPU use with 56 MPI tasks x no OpenMP threads

MPI task timing breakdown:
Section |  min time  |  avg time  |  max time  |%varavg| %total
---------------------------------------------------------------
Pair    | 18.542     | 19.639     | 20.783     |  10.8 | 37.99
Bond    | 0.0014645  | 0.0024264  | 0.0039475  |   0.9 |  0.00
Kspace  | 14.723     | 15.913     | 17.084     |  12.0 | 30.78
Neigh   | 4.5802     | 4.5834     | 4.5856     |   0.1 |  8.87
Comm    | 1.6554     | 1.8063     | 1.9981     |   5.8 |  3.49
Output  | 0.023143   | 0.040306   | 0.05694    |   5.0 |  0.08
Modify  | 7.3411     | 8.0411     | 9.4497     |  17.9 | 15.55
Other   |            | 1.671      |            |       |  3.23

Nlocal:        219.429 ave         253 max         204 min
Histogram: 7 12 8 8 12 5 2 1 0 1
Nghost:        6849.05 ave        6913 max        6781 min
Histogram: 4 3 3 8 10 6 10 1 6 5
Neighs:        96047.9 ave      111411 max       87576 min
Histogram: 6 9 8 9 13 5 4 1 0 1

Total # of neighbors = 5378683
Ave neighs/atom = 437.71834
Ave special neighs/atom = 2
Neighbor list builds = 386
Dangerous builds = 0
kspace_style pppm/tip4p 1.0e-5
next nloop
jump SELF loop_start
run 10000 # 10ps
PPPM initialization ...
  extracting TIP4P info from pair style
  using 12-bit tables for long-range coulomb
  G vector (1/distance) = 0.32815664
  grid = 50 50 50
  stencil order = 5
  estimated absolute RMS force accuracy = 0.0035802102
  estimated relative force accuracy = 1.0781697e-05
  using double precision KISS FFT
  3d grid and FFT values/proc = 11424 2800
Generated 0 of 1 mixed pair_coeff terms from geometric mixing rule
Per MPI rank memory allocation (min/avg/max) = 10.92 | 11.04 | 11.13 Mbytes
   Step          Temp          TotEng         PotEng          Pxy           v_sxy         v_strain     v_viscosity  
   1980000   436.08133     -37378.273     -48025.554     -1522.8724      0.15132543     495            0.00060530172
   1981000   432.91477     -37474.68      -48044.647     -2020.5462      0.20195217     495.25         0.00080780869
   1982000   431.67041     -37427.065     -47966.65      -1952.5757      0.19629599     495.5          0.00078518395
   1983000   432.30632     -37718.404     -48273.515     -1966.2519      0.19315171     495.75         0.00077260686
   1984000   434.13906     -37769.877     -48369.736     -2289.9419      0.22393952     496            0.00089575808
   1985000   437.73963     -37580.281     -48268.051     -2375.9269      0.2308696      496.25         0.00092347839
   1986000   433.19583     -37502.065     -48078.895     -2168.3589      0.21280888     496.5          0.00085123554
   1987000   438.03515     -37389.441     -48084.427     -2253.9161      0.2222561      496.75         0.00088902441
   1988000   436.32252     -37482.025     -48135.195     -2097.4265      0.20019402     497            0.00080077608
   1989000   434.81555     -37432.345     -48048.721     -2186.199       0.21656719     497.25         0.00086626877
   1990000   427.93559     -37844.027     -48292.423     -2274.6364      0.22493486     497.5          0.00089973946
Loop time of 44.2693 on 56 procs for 10000 steps with 12288 atoms

Performance: 19.517 ns/day, 1.230 hours/ns, 225.890 timesteps/s, 2.776 Matom-step/s
99.8% CPU use with 56 MPI tasks x no OpenMP threads

MPI task timing breakdown:
Section |  min time  |  avg time  |  max time  |%varavg| %total
---------------------------------------------------------------
Pair    | 18.429     | 19.395     | 20.253     |  10.1 | 43.81
Bond    | 0.0012453  | 0.0021076  | 0.0031571  |   0.8 |  0.00
Kspace  | 10.992     | 11.734     | 12.644     |  12.3 | 26.51
Neigh   | 4.5159     | 4.5183     | 4.521      |   0.1 | 10.21
Comm    | 1.5414     | 1.6378     | 1.7811     |   5.2 |  3.70
Output  | 0.023255   | 0.040631   | 0.057474   |   5.0 |  0.09
Modify  | 5.1625     | 5.6513     | 6.6869     |  15.0 | 12.77
Other   |            | 1.29       |            |       |  2.91

Nlocal:        219.429 ave         236 max         202 min
Histogram: 1 2 10 5 9 9 5 9 3 3
Nghost:        7281.14 ave        7378 max        7206 min
Histogram: 3 6 6 8 11 9 9 3 0 1
Neighs:          96074 ave      104566 max       87741 min
Histogram: 3 4 6 5 10 9 6 7 4 2

Total # of neighbors = 5380144
Ave neighs/atom = 437.83724
Ave special neighs/atom = 2
Neighbor list builds = 382
Dangerous builds = 0
kspace_style pppm/tip4p 1.0e-5
next nloop
jump SELF loop_start
run 10000 # 10ps
PPPM initialization ...
  extracting TIP4P info from pair style
  using 12-bit tables for long-range coulomb
  G vector (1/distance) = 0.32815664
  grid = 50 75 50
  stencil order = 5
  estimated absolute RMS force accuracy = 0.0035802102
  estimated relative force accuracy = 1.0781697e-05
  using double precision KISS FFT
  3d grid and FFT values/proc = 15776 4000
Generated 0 of 1 mixed pair_coeff terms from geometric mixing rule
Per MPI rank memory allocation (min/avg/max) = 11.21 | 11.35 | 11.45 Mbytes
   Step          Temp          TotEng         PotEng          Pxy           v_sxy         v_strain     v_viscosity  
   1990000   427.91067     -37846.7       -48294.488     -1689.0744      0.16521313     497.5          0.00066085251
   1991000   436.98668     -37446.647     -48116.033     -2251.5959      0.22121958     497.75         0.00088487832
   1992000   432.85835     -37613.149     -48181.738     -1838.0343      0.17611181     498            0.00070444724
   1993000   433.38892     -37528.138     -48109.682     -2429.93        0.23730668     498.25         0.00094922673
   1994000   437.34794     -37586.791     -48264.997     -1950.1398      0.19329556     498.5          0.00077318225
   1995000   436.26425     -37564.047     -48215.794     -2098.7231      0.20121598     498.75         0.00080486391
   1996000   431.58005     -37664.684     -48202.063     -2317.7932      0.22606372     499            0.00090425489
   1997000   434.41293     -37531.801     -48138.346     -2208.1455      0.21718799     499.25         0.00086875198
   1998000   432.58256     -37428.305     -47990.161     -1993.8011      0.1980098      499.5          0.00079203921
   1999000   429.97901     -37782.161     -48280.449     -2076.9838      0.20253443     499.75         0.00081013772
   2000000   429.85399     -37591.662     -48086.897     -2016.4795      0.19804536     500            0.00079218144
Loop time of 51.4589 on 56 procs for 10000 steps with 12288 atoms

Performance: 16.790 ns/day, 1.429 hours/ns, 194.330 timesteps/s, 2.388 Matom-step/s
99.8% CPU use with 56 MPI tasks x no OpenMP threads

MPI task timing breakdown:
Section |  min time  |  avg time  |  max time  |%varavg| %total
---------------------------------------------------------------
Pair    | 18.853     | 19.636     | 20.398     |   8.0 | 38.16
Bond    | 0.0015241  | 0.0024072  | 0.003595   |   0.9 |  0.00
Kspace  | 15.116     | 15.773     | 16.447     |   8.7 | 30.65
Neigh   | 4.5167     | 4.5194     | 4.5212     |   0.0 |  8.78
Comm    | 1.6494     | 1.7953     | 2.0192     |   6.0 |  3.49
Output  | 0.023869   | 0.041132   | 0.057824   |   5.0 |  0.08
Modify  | 7.328      | 8.03       | 9.4225     |  17.9 | 15.60
Other   |            | 1.662      |            |       |  3.23

Nlocal:        219.429 ave         244 max         204 min
Histogram: 4 5 7 11 14 6 5 3 0 1
Nghost:        6859.79 ave        6925 max        6815 min
Histogram: 6 6 9 7 6 11 4 4 2 1
Neighs:        96073.1 ave      107708 max       87509 min
Histogram: 2 5 7 12 12 8 5 3 1 1

Total # of neighbors = 5380093
Ave neighs/atom = 437.83309
Ave special neighs/atom = 2
Neighbor list builds = 382
Dangerous builds = 0
kspace_style pppm/tip4p 1.0e-5
next nloop
jump SELF loop_start
# run ${Ttotal}
# variable nloop loop ${nloops}
# label loop_start
# run ${stepsPerReset}
# kspace_style pppm/tip4p 1.0e-5
# next nloop
# jump SELF loop_start
Total wall time: 2:41:04
