LAMMPS (22 Jul 2025 - Update 1)
units real
atom_style full
boundary p p p

# package intel 1 omp 2

pair_style lj/cut/tip4p/long 1 2 1 1 0.1546 9.5

bond_style zero
angle_style zero
pair_modify tail yes

read_data 4096_equilibrated_${T}.data
read_data 4096_equilibrated_246.data
Reading data file ...
  triclinic box = (0 0 0) to (49.79052 49.79052 49.79052) with tilt (0 0 0)
  2 by 4 by 7 MPI processor grid
  reading atoms ...
  12288 atoms
  reading velocities ...
  12288 velocities
  scanning bonds ...
  2 = max bonds/atom
  scanning angles ...
  1 = max angles/atom
  triclinic box = (0 0 0) to (49.79052 49.79052 49.79052) with tilt (0 0 0)
  2 by 4 by 7 MPI processor grid
  reading bonds ...
  8192 bonds
  reading angles ...
  4096 angles
Finding 1-2 1-3 1-4 neighbors ...
  special bond factors lj:    0        0        0       
  special bond factors coul:  0        0        0       
     2 = max # of 1-2 neighbors
     1 = max # of 1-3 neighbors
     1 = max # of 1-4 neighbors
     2 = max # of special neighbors
  special bonds CPU = 0.004 seconds
  read_data CPU = 0.131 seconds
# read_data equilibration_NVT_${T}.data
# replicate 2 2 2

print "Initial configuration loaded."
Initial configuration loaded.
reset_timestep 0
print "Applying shear rate: ${gamma}"
Applying shear rate: 2.5e-6
change_box all triclinic
Changing box ...
  triclinic box = (0 0 0) to (49.79052 49.79052 49.79052) with tilt (0 0 0)
kspace_style pppm/tip4p 1.0e-5

pair_coeff 1 1 0.18521 3.1589 #O-O
pair_coeff * 2 0.0 0.0

bond_coeff 1 0.9572 #O-H
angle_coeff 1 104.52 #H-O-H

group gH2O type 1 2
12288 atoms in group gH2O
group gO type 1
4096 atoms in group gO

neighbor 3.0 bin
neigh_modify delay 0 every 1 check yes

timestep 1.0
fix 1 gH2O shake 1.0e-4 100 0 b 1 a 1
Finding SHAKE clusters ...
       0 = # of size 2 clusters
       0 = # of size 3 clusters
       0 = # of size 4 clusters
    4096 = # of frozen angles
  find clusters CPU = 0.004 seconds

# # 系统弛豫到平衡态
# fix fnvt_equil all nvt temp ${T} ${T} 100.0
# thermo 1000
# thermo_style custom step temp etotal pe
# thermo_modify flush yes
# run 500000 # 500 ps
# unfix fnvt_equil
# write_data 4096_equilibrated_${T}.data

# 系统剪切变形

fix fdeform all deform 1 xy erate ${gamma} remap v
fix fdeform all deform 1 xy erate 2.5e-6 remap v
fix fnvt all nvt/sllod temp ${T} ${T} 100.0
fix fnvt all nvt/sllod temp 246 ${T} 100.0
fix fnvt all nvt/sllod temp 246 246 100.0

compute tilt all temp/deform

variable L0_x equal lx
variable L0_y equal ly
variable L0_z equal lz

compute p all pressure NULL virial
variable sxy equal -c_p[4] * 1.01325e-4  # convert to GPa


variable strainInc equal 0.01
variable dt equal 1.0e-15
variable gammaSI equal ${gamma}*1e15
variable gammaSI equal 2.5e-6*1e15
variable stepsPerReset equal ceil(${strainInc}/(${gammaSI}*${dt}))
variable stepsPerReset equal ceil(0.01/(${gammaSI}*${dt}))
variable stepsPerReset equal ceil(0.01/(2500000000*${dt}))
variable stepsPerReset equal ceil(0.01/(2500000000*1e-15))
print "Steps per reset: ${stepsPerReset}"
Steps per reset: 4000

variable massAll equal mass(all)/6.022e23
variable volCm3 equal vol*1.0e-24
variable density_sys equal v_massAll/v_volCm3
variable tau_pa equal v_sxy * 1e9
variable gamma_s equal ${gamma} * 1e15
variable gamma_s equal 2.5e-6 * 1e15
variable viscosity equal v_tau_pa / v_gamma_s

variable strain equal step*${gammaSI}*${dt}
variable strain equal step*2500000000*${dt}
variable strain equal step*2500000000*1e-15

thermo 1000
thermo_style custom step temp etotal pe pxy v_sxy v_strain v_viscosity
thermo_modify flush yes

dump traj all custom 500 traj_${gamma}_${T}.lammpstrj id type xu yu zu vx vy vz # 0.5ps
dump traj all custom 500 traj_2.5e-6_${T}.lammpstrj id type xu yu zu vx vy vz 
dump traj all custom 500 traj_2.5e-6_246.lammpstrj id type xu yu zu vx vy vz 
dump_modify traj sort id
fix stress all ave/time 500 1 500 v_strain v_sxy file stress_${gamma}_${T}.data  # 每0.5ps输出一次应力和应变
fix stress all ave/time 500 1 500 v_strain v_sxy file stress_2.5e-6_${T}.data  
fix stress all ave/time 500 1 500 v_strain v_sxy file stress_2.5e-6_246.data  

# compute peratom all stress/atom NULL
# dump stress gO custom 5000 stress_${gamma}_${T}.lammpstrj id type c_peratom[1] c_peratom[2] c_peratom[3] c_peratom[4] c_peratom[5] c_peratom[6]
# dump_modify stress sort id

variable Ttotal equal 2000000 # 2.0 ns
variable nloops equal ceil(${Ttotal}/(100000))
variable nloops equal ceil(2000000/(100000))
print "Total loops: ${nloops}"
Total loops: 20

variable nloop loop ${nloops}
variable nloop loop 20
label loop_start
run 100000 # 100ps
PPPM initialization ...
  extracting TIP4P info from pair style
  using 12-bit tables for long-range coulomb
  G vector (1/distance) = 0.32815664
  grid = 50 50 50
  stencil order = 5
  estimated absolute RMS force accuracy = 0.0035802102
  estimated relative force accuracy = 1.0781697e-05
  using double precision KISS FFT
  3d grid and FFT values/proc = 11424 2800
WARNING: Communication cutoff 0 is shorter than a bond length based estimate of 4.4358. This may lead to errors. (../comm.cpp:743)
WARNING: Increasing communication cutoff to 13.6118 for TIP4P pair style (../pair_lj_cut_tip4p_long.cpp:497)
Generated 0 of 1 mixed pair_coeff terms from geometric mixing rule
Neighbor list info ...
  update: every = 1 steps, delay = 0 steps, check = yes
  max neighbors/atom: 2000, page size: 100000
  master list distance cutoff = 12.8092
  ghost atom cutoff = 13.6118
  binsize = 6.4046, bins = 8 8 8
  1 neighbor lists, perpetual/occasional/extra = 1 0 0
  (1) pair lj/cut/tip4p/long, perpetual
      attributes: half, newton on
      pair build: half/bin/newton/tri
      stencil: half/bin/3d/tri
      bin: standard
Per MPI rank memory allocation (min/avg/max) = 9.2 | 9.373 | 9.718 Mbytes
   Step          Temp          TotEng         PotEng          Pxy           v_sxy         v_strain     v_viscosity  
         0   245.46957     -44327.561     -50320.901      139.5099      -0.016153381    0             -0.0064613526 
      1000   247.13143     -44237.117     -50271.032     -100.02589      0.0083679235   0.0025         0.0033471694 
      2000   250.44686     -44278.241     -50393.106      119.42916     -0.012710606    0.005         -0.0050842424 
      3000   248.03588     -44373.582     -50429.58      -7.4043167      0.0023192867   0.0075         0.00092771468
      4000   248.89501     -44299.56      -50376.534     -68.15984       0.0074512393   0.01           0.0029804957 
      5000   242.72461     -44369.374     -50295.693      78.582171     -0.0086185663   0.0125        -0.0034474265 
      6000   247.67361     -44216.475     -50263.628     -121.99109      0.012521524    0.015          0.0050086094 
      7000   245.13419     -44505.28      -50490.431      46.418226     -0.0069798176   0.0175        -0.0027919271 
      8000   249.15433     -44180.027     -50263.333     -225.36279      0.023800094    0.02           0.0095200375 
      9000   246.31156     -44262.058     -50275.956     -218.41255      0.021032265    0.0225         0.0084129058 
     10000   244.68594     -44296.672     -50270.879     -280.71217      0.029534714    0.025          0.011813886  
     11000   245.19728     -44328.197     -50314.889     -386.28598      0.034976889    0.0275         0.013990756  
     12000   245.3736      -44408.168     -50399.164     -338.68262      0.030299998    0.03           0.012119999  
     13000   247.45848     -44287.003     -50328.903     -198.07319      0.016848802    0.0325         0.0067395206 
     14000   245.62031     -44500.788     -50497.809     -51.520637      0.0019963393   0.035          0.00079853573
     15000   245.62091     -44353.288     -50350.322     -467.71126      0.048096749    0.0375         0.0192387    
     16000   247.78254     -44315.496     -50365.309     -352.9824       0.033826352    0.04           0.013530541  
     17000   243.74412     -44271.224     -50222.435     -244.37574      0.026490268    0.0425         0.010596107  
     18000   246.44555     -44344.52      -50361.689     -191.19231      0.016107687    0.045          0.0064430747 
     19000   248.00843     -44295.94      -50351.268      121.34809     -0.010126319    0.0475        -0.0040505277 
     20000   243.07023     -44508.188     -50442.946     -395.99611      0.037348473    0.05           0.014939389  
     21000   243.90015     -44359.792     -50314.813     -254.58691      0.028028351    0.0525         0.01121134   
     22000   245.61705     -44206.062     -50203.003     -162.54322      0.01901507     0.055          0.0076060281 
     23000   244.99537     -44283.532     -50265.294     -324.45436      0.026965888    0.0575         0.010786355  
     24000   245.29217     -44256.856     -50245.865     -57.058804      0.0049590425   0.06           0.001983617  
     25000   243.96769     -44321.375     -50278.045     -209.90231      0.023477727    0.0625         0.0093910908 
     26000   243.13987     -44363.868     -50300.326     -16.965023      0.00065274044  0.065          0.00026109618
     27000   246.94646     -44193.955     -50223.354     -334.72175      0.031464257    0.0675         0.012585703  
     28000   246.82055     -44264.742     -50291.067     -182.49712      0.022075077    0.07           0.0088300309 
     29000   246.14318     -44289.545     -50299.331     -263.04903      0.026870673    0.0725         0.010748269  
     30000   246.5553      -44233.472     -50253.321     -423.94579      0.042269706    0.075          0.016907882  
     31000   247.04584     -44353.945     -50385.771     -142.3524       0.0095668805   0.0775         0.0038267522 
     32000   245.99839     -44105.429     -50111.68      -141.66933      0.013471067    0.08           0.0053884267 
     33000   243.39363     -44270.183     -50212.837     -240.12543      0.019827635    0.0825         0.0079310538 
     34000   247.4053      -44240.359     -50280.961     -120.45183      0.013420251    0.085          0.0053681004 
     35000   246.97592     -44168.189     -50198.307     -91.619112      0.0084092298   0.0875         0.0033636919 
     36000   242.20607     -44343.998     -50257.657     -114.41071      0.011143671    0.09           0.0044574683 
     37000   251.04555     -44265.132     -50394.614     -103.97921      0.0086622912   0.0925         0.0034649165 
     38000   247.00799     -44260.222     -50291.123      55.883204     -0.0057092159   0.095         -0.0022836864 
     39000   245.82923     -44367.141     -50369.262     -250.57404      0.026632005    0.0975         0.010652802  
     40000   247.40359     -44239.761     -50280.322      70.01172      -0.011303341    0.1           -0.0045213365 
     41000   248.48546     -44213.66      -50280.635     -154.00807      0.011941833    0.1025         0.0047767333 
     42000   246.84422     -44143.813     -50170.716     -284.46368      0.032929634    0.105          0.013171854  
     43000   245.12586     -44229.059     -50214.006      134.86171     -0.015424164    0.1075        -0.0061696655 
     44000   243.83141     -44280.468     -50233.81      -192.4794       0.020461302    0.11           0.0081845208 
     45000   246.52725     -44279.358     -50298.522     -98.662585      0.0070868193   0.1125         0.0028347277 
     46000   242.48266     -44382.554     -50302.966     -153.10183      0.015735404    0.115          0.0062941618 
     47000   246.23796     -44240.507     -50252.607     -154.58864      0.011860989    0.1175         0.0047443954 
     48000   246.23815     -44309.168     -50321.273     -117.62812      0.010123163    0.12           0.0040492652 
     49000   246.0111      -44327.728     -50334.29       3.8452481     -0.0003712119   0.1225        -0.00014848476
     50000   243.11291     -44311.614     -50247.414      139.76595     -0.014739582    0.125         -0.0058958326 
     51000   247.34361     -44167.547     -50206.643     -24.256965     -0.00041243905  0.1275        -0.00016497562
     52000   247.45679     -44161.516     -50203.375     -105.50198      0.0073496878   0.13           0.0029398751 
     53000   249.21415     -44260.117     -50344.883     -15.096745      0.0015675957   0.1325         0.00062703827
     54000   248.73239     -44137.658     -50210.662     -179.02668      0.01908085     0.135          0.0076323398 
     55000   247.3876      -44277.008     -50317.178     -229.22133      0.023394213    0.1375         0.0093576853 
     56000   246.23928     -44251.618     -50263.751      12.406162      0.00021252689  0.14           8.5010754e-05
     57000   245.1322      -44231.077     -50216.179     -196.50767      0.019988498    0.1425         0.0079953993 
     58000   247.44812     -44287.539     -50329.187     -292.85429      0.029613999    0.145          0.0118456    
     59000   241.94277     -44458.806     -50366.036     -393.39466      0.039889127    0.1475         0.015955651  
     60000   243.32793     -44222.703     -50163.753     -79.624809      0.005240226    0.15           0.0020960904 
     61000   244.80224     -44324.306     -50301.353     -389.20406      0.040774374    0.1525         0.016309749  
     62000   243.31971     -44238.474     -50179.324     -298.79185      0.030660712    0.155          0.012264285  
     63000   241.61508     -44396         -50295.229     -103.03834      0.013068617    0.1575         0.0052274466 
     64000   246.74338     -44256.218     -50280.659      31.005575     -0.0048268372   0.16          -0.0019307349 
     65000   243.78919     -44280.725     -50233.037     -242.22512      0.021586854    0.1625         0.0086347415 
     66000   247.97259     -44331.901     -50386.354     -157.64864      0.018478002    0.165          0.0073912008 
     67000   245.82901     -44389.202     -50391.317     -561.54835      0.055881584    0.1675         0.022352634  
     68000   250.83323     -44185.889     -50310.187     -234.63557      0.020622878    0.17           0.0082491512 
     69000   246.12278     -44423.599     -50432.887     -195.41139      0.015143193    0.1725         0.0060572771 
     70000   246.01567     -44302.418     -50309.091     -295.19475      0.028177527    0.175          0.011271011  
     71000   243.25132     -44386.764     -50325.943     -518.03191      0.051118932    0.1775         0.020447573  
     72000   244.69052     -44260.514     -50234.832     -23.793433      0.0034712219   0.18           0.0013884888 
     73000   243.89582     -44377.742     -50332.657      153.14359     -0.015679107    0.1825        -0.0062716426 
     74000   247.81634     -44221.662     -50272.3       -38.492941      0.0012917522   0.185          0.00051670087
     75000   241.73786     -44442.692     -50344.919     -45.384586      0.0056965605   0.1875         0.0022786242 
     76000   241.64132     -44277.637     -50177.506      290.54031     -0.024445256    0.19          -0.0097781026 
     77000   243.52192     -44410.029     -50355.815     -276.14709      0.025896693    0.1925         0.010358677  
     78000   245.38528     -44145.625     -50136.907      146.0784      -0.016952977    0.195         -0.0067811909 
     79000   244.00165     -44360.76      -50318.259      102.14612     -0.0084658666   0.1975        -0.0033863466 
     80000   247.77125     -44138.942     -50188.479     -348.82861      0.037774993    0.2            0.015109997  
     81000   244.22777     -44356.449     -50319.469      82.326948     -0.0084850959   0.2025        -0.0033940384 
     82000   245.50939     -44239.406     -50233.717     -185.35771      0.017334593    0.205          0.0069338372 
     83000   244.26186     -44318.704     -50282.556     -763.50705      0.075209204    0.2075         0.030083681  
     84000   249.79516     -44155.853     -50254.806     -232.46616      0.022246705    0.21           0.008898682  
     85000   243.92428     -44245.756     -50201.366      154.76391     -0.012434769    0.2125        -0.0049739074 
     86000   246.33833     -44261.287     -50275.838      25.903342     -0.0037271581   0.215         -0.0014908633 
     87000   249.63568     -44170.352     -50265.41      -68.895304      0.0076222222   0.2175         0.0030488889 
     88000   246.83295     -44252.265     -50278.893     -189.08984      0.017900174    0.22           0.0071600694 
     89000   244.96829     -44292.254     -50273.354      11.365387      0.0035238717   0.2225         0.0014095487 
     90000   244.99869     -44251.282     -50233.125     -362.83219      0.037715766    0.225          0.015086307  
     91000   244.8846      -44212.327     -50191.384      19.976432     -0.0022428718   0.2275        -0.00089714871
     92000   247.62488     -44190.867     -50236.831     -250.78752      0.021874237    0.23           0.0087496947 
     93000   246.78404     -44202.345     -50227.779     -17.853933      0.00033646213  0.2325         0.00013458485
     94000   247.4207      -44194.122     -50235.101      180.66433     -0.017750825    0.235         -0.00710033   
     95000   248.4192      -44065.028     -50130.385     -117.44736      0.0086056857   0.2375         0.0034422743 
     96000   242.64951     -44371.964     -50296.45      -262.96213      0.030209386    0.24           0.012083755  
     97000   246.96391     -44206.864     -50236.689     -134.81406      0.012899106    0.2425         0.0051596425 
     98000   249.4007      -44126.399     -50215.721     -457.87161      0.045412894    0.245          0.018165158  
     99000   245.80923     -44175.581     -50177.213     -201.92715      0.020401844    0.2475         0.0081607377 
    100000   244.56479     -44307.727     -50278.975     -123.3026       0.012324144    0.25           0.0049296577 
Loop time of 427.816 on 56 procs for 100000 steps with 12288 atoms

Performance: 20.196 ns/day, 1.188 hours/ns, 233.746 timesteps/s, 2.872 Matom-step/s
99.7% CPU use with 56 MPI tasks x no OpenMP threads

MPI task timing breakdown:
Section |  min time  |  avg time  |  max time  |%varavg| %total
---------------------------------------------------------------
Pair    | 192.57     | 200.6      | 208.88     |  25.6 | 46.89
Bond    | 0.019627   | 0.027746   | 0.044352   |   2.7 |  0.01
Kspace  | 110.29     | 119.3      | 126.71     |  34.3 | 27.89
Neigh   | 22.53      | 22.548     | 22.558     |   0.1 |  5.27
Comm    | 14.553     | 15.788     | 17.434     |  17.3 |  3.69
Output  | 0.22737    | 0.40534    | 0.57677    |  16.3 |  0.09
Modify  | 51.964     | 56.474     | 66.674     |  45.9 | 13.20
Other   |            | 12.66      |            |       |  2.96

Nlocal:        219.429 ave         242 max         200 min
Histogram: 2 1 6 10 13 15 4 3 1 1
Nghost:        6952.96 ave        7005 max        6913 min
Histogram: 4 5 9 9 8 7 5 4 3 2
Neighs:        96084.3 ave      107108 max       86068 min
Histogram: 2 1 4 12 13 12 7 3 1 1

Total # of neighbors = 5380721
Ave neighs/atom = 437.8842
Ave special neighs/atom = 2
Neighbor list builds = 1901
Dangerous builds = 0
kspace_style pppm/tip4p 1.0e-5
next nloop
jump SELF loop_start
run 100000 # 100ps
PPPM initialization ...
  extracting TIP4P info from pair style
  using 12-bit tables for long-range coulomb
  G vector (1/distance) = 0.32881326
  grid = 50 64 50
  stencil order = 5
  estimated absolute RMS force accuracy = 0.003443216
  estimated relative force accuracy = 1.0369143e-05
  using double precision KISS FFT
  3d grid and FFT values/proc = 13600 3200
Generated 0 of 1 mixed pair_coeff terms from geometric mixing rule
Per MPI rank memory allocation (min/avg/max) = 11.03 | 11.1 | 11.15 Mbytes
   Step          Temp          TotEng         PotEng          Pxy           v_sxy         v_strain     v_viscosity  
    100000   244.56525     -44307.724     -50278.984     -118.23343      0.011808022    0.25           0.0047232087 
    101000   248.79761     -44127.363     -50201.959      60.259073     -0.0037245246   0.2525        -0.0014898099 
    102000   245.41539     -44417.641     -50409.658     -236.61201      0.023467372    0.255          0.0093869486 
    103000   243.90756     -44413.993     -50369.195     -30.541451      0.0029335267   0.2575         0.0011734107 
    104000   252.3024      -44179.504     -50339.672      135.03705     -0.013627544    0.26          -0.0054510176 
    105000   241.16298     -44416.558     -50304.749     -177.16411      0.017521883    0.2625         0.0070087534 
    106000   248.93087     -44247.856     -50325.706     -99.293132      0.0099915961   0.265          0.0039966385 
    107000   245.77295     -44274.827     -50275.574     -228.62503      0.022582621    0.2675         0.0090330486 
    108000   250.33485     -44223.326     -50335.455     -106.54787      0.010386318    0.27           0.0041545273 
    109000   244.44599     -44391.503     -50359.851     -0.6580049      0.0024426115   0.2725         0.00097704461
    110000   250.05244     -44185.677     -50290.911     -129.24183      0.014921779    0.275          0.0059687117 
    111000   246.00037     -44339.055     -50345.355     -23.983738      0.0024153386   0.2775         0.00096613546
    112000   241.61283     -44428.108     -50327.282     -379.70072      0.037811263    0.28           0.015124505  
    113000   247.89454     -44244.793     -50297.34       197.63016     -0.018412938    0.2825        -0.0073651751 
    114000   242.57362     -44391.724     -50314.357      34.239172     -0.002327756    0.285         -0.00093110239
    115000   245.22824     -44290.374     -50277.822     -294.38677      0.026885179    0.2875         0.010754072  
    116000   243.24613     -44297.241     -50236.294      53.698232     -0.0074359345   0.29          -0.0029743738 
    117000   240.70468     -44442.032     -50319.033     -224.20024      0.01928096     0.2925         0.0077123841 
    118000   248.84823     -44260.124     -50335.956     -60.568798      0.0046346823   0.295          0.0018538729 
    119000   244.19674     -44527.585     -50489.847     -445.97173      0.042895256    0.2975         0.017158102  
    120000   247.01113     -44446.926     -50477.904     -173.8421       0.017321438    0.3            0.0069285751 
    121000   246.31767     -44360.257     -50374.304     -80.651179      0.0086842395   0.3025         0.0034736958 
    122000   247.22863     -44362.844     -50399.133     -170.27823      0.016292891    0.305          0.0065171564 
    123000   244.01645     -44452.392     -50410.253     -184.21577      0.017745002    0.3075         0.0070980006 
    124000   246.20778     -44279.818     -50291.182     -79.052077      0.0058362394   0.31           0.0023344957 
    125000   242.16126     -44442.087     -50354.651      224.77091     -0.02143349     0.3125        -0.0085733961 
    126000   246.0686      -44242.726     -50250.691     -13.880112      0.0031421918   0.315          0.0012568767 
    127000   242.45745     -44225.493     -50145.289     -460.15511      0.042290808    0.3175         0.016916323  
    128000   246.31093     -44329.102     -50342.984      4.4813128      0.002435454    0.32           0.00097418161
    129000   245.89064     -44256.985     -50260.605     -179.90827      0.019955833    0.3225         0.0079823333 
    130000   248.91211     -44108.049     -50185.441     -139.40086      0.012417902    0.325          0.0049671608 
    131000   249.68236     -44152.473     -50248.671     -249.31551      0.028527439    0.3275         0.011410976  
    132000   242.06251     -44460.725     -50370.878     -239.20232      0.024349927    0.33           0.0097399709 
    133000   251.89423     -44026.617     -50176.82      -14.114008      0.0045359987   0.3325         0.0018143995 
    134000   245.18928     -44386.164     -50372.66      -86.339438      0.006050407    0.335          0.0024201628 
    135000   245.0298      -44463.794     -50446.396      93.618191     -0.0079615742   0.3375        -0.0031846297 
    136000   246.61176     -44292.965     -50314.193      17.525484     -0.0046924286   0.34          -0.0018769714 
    137000   242.3321      -44377.908     -50294.644     -408.47547      0.038861455    0.3425         0.015544582  
    138000   245.11466     -44209.992     -50194.666     -368.81469      0.037776477    0.345          0.015110591  
    139000   247.74658     -44120.251     -50169.186     -289.55658      0.025164307    0.3475         0.010065723  
    140000   241.51868     -44341.161     -50238.036     -107.25198      0.013031281    0.35           0.0052125124 
    141000   249.88195     -44109.874     -50210.945      48.717469     -0.0035244017   0.3525        -0.0014097607 
    142000   244.52508     -44240.541     -50210.82      -196.50972      0.021296651    0.355          0.0085186605 
    143000   246.89776     -44123.412     -50151.622      25.749176     -0.005087355    0.3575        -0.002034942  
    144000   245.92305     -44229.286     -50233.697     -531.31885      0.052690172    0.36           0.021076069  
    145000   244.09822     -44187.208     -50147.065     -243.57538      0.022225724    0.3625         0.0088902895 
    146000   247.50825     -44203.207     -50246.322     -347.42015      0.033230044    0.365          0.013292018  
    147000   245.86143     -44238.706     -50241.614     -363.67981      0.035687341    0.3675         0.014274936  
    148000   243.55655     -44182.066     -50128.698     -186.36471      0.022935472    0.37           0.0091741889 
    149000   244.17583     -44212.986     -50174.737     -45.637322      0.0052093598   0.3725         0.0020837439 
    150000   245.40906     -44160.27      -50152.132     -237.98427      0.025076302    0.375          0.010030521  
    151000   247.03258     -44068.62      -50100.122      94.211977     -0.0096278814   0.3775        -0.0038511526 
    152000   243.9101      -44271.006     -50226.27      -245.65938      0.02195224     0.38           0.0087808958 
    153000   246.3801      -44283.34      -50298.911     -119.97799      0.016248348    0.3825         0.0064993394 
    154000   246.29263     -44245.746     -50259.181     -71.060219      0.0047407882   0.385          0.0018963153 
    155000   245.69859     -44213.558     -50212.489     -203.28805      0.02131126     0.3875         0.0085245039 
    156000   250.60905     -44045.466     -50164.29      -220.29278      0.018216458    0.39           0.0072865832 
    157000   246.01287     -44209.161     -50215.766     -73.575907      0.0048671556   0.3925         0.0019468622 
    158000   243.59483     -44275.706     -50223.272     -198.30056      0.016903533    0.395          0.0067614132 
    159000   245.34349     -44260.399     -50250.66       46.040898     -0.0066026258   0.3975        -0.0026410503 
    160000   247.65423     -44396.192     -50442.872     -124.0135       0.012357783    0.4            0.0049431132 
    161000   246.67834     -44202.803     -50225.656     -183.31076      0.021148008    0.4025         0.0084592031 
    162000   246.60762     -44266.576     -50287.702     -197.98969      0.020732484    0.405          0.0082929935 
    163000   243.5831      -44344.692     -50291.972     -372.77828      0.033300692    0.4075         0.013320277  
    164000   245.55418     -44354.57      -50349.976     -122.8842       0.012078686    0.41           0.0048314745 
    165000   248.7751      -44152.226     -50226.273     -291.51687      0.023559533    0.4125         0.0094238131 
    166000   243.44661     -44307.098     -50251.045     -102.02288      0.014293749    0.415          0.0057174995 
    167000   243.81963     -44140.139     -50093.194     -248.23424      0.022422793    0.4175         0.0089691173 
    168000   243.27343     -44258.421     -50198.14      -232.47137      0.022133789    0.42           0.0088535154 
    169000   243.16141     -44150.2       -50087.184      112.97962     -0.012374915    0.4225        -0.0049499661 
    170000   251.55759     -44023.653     -50165.636      49.672519     -0.0038077819   0.425         -0.0015231128 
    171000   244.40684     -44465.911     -50433.303     -427.52265      0.041652085    0.4275         0.016660834  
    172000   247.43212     -44164.335     -50205.592     -13.212219      0.0017938674   0.43           0.00071754696
    173000   247.91162     -44251.902     -50304.866      134.64017     -0.01165249     0.4325        -0.0046609959 
    174000   246.79419     -44239.408     -50265.09      -185.66818      0.01093652     0.435          0.0043746079 
    175000   248.91409     -44134.518     -50211.959     -177.50688      0.021818983    0.4375         0.0087275933 
    176000   247.94573     -44266.901     -50320.698     -201.45649      0.018196924    0.44           0.0072787695 
    177000   245.38013     -44199.289     -50190.445     -151.30036      0.016536149    0.4425         0.0066144595 
    178000   245.36535     -44298.405     -50289.2       -77.444124      0.008908977    0.445          0.0035635908 
    179000   243.80544     -44290.887     -50243.596     -334.61186      0.037788868    0.4475         0.015115547  
    180000   244.42363     -44387.018     -50354.82      -166.28243      0.019529044    0.45           0.0078116175 
    181000   246.67442     -44264.66      -50287.417     -89.081914      0.0070688907   0.4525         0.0028275563 
    182000   247.26269     -44153.42      -50190.54      -314.97186      0.032412312    0.455          0.012964925  
    183000   245.51767     -44365.414     -50359.928     -273.53487      0.026123849    0.4575         0.01044954   
    184000   245.51574     -44168.07      -50162.537     -468.65886      0.048344846    0.46           0.019337938  
    185000   242.55716     -44259.28      -50181.511     -143.5309       0.01669341     0.4625         0.0066773639 
    186000   248.52821     -44048.01      -50116.028      36.014229      0.00064206999  0.465          0.00025682799
    187000   246.67467     -44060.01      -50082.773     -306.38493      0.025312552    0.4675         0.010125021  
    188000   242.29569     -44211.662     -50127.509     -270.23969      0.027515092    0.47           0.011006037  
    189000   246.44655     -44208.428     -50225.622     -203.1059       0.019942364    0.4725         0.0079769454 
    190000   248.34819     -44102.813     -50166.436     -74.756286      0.010971596    0.475          0.0043886383 
    191000   247.01112     -44303.914     -50334.892     -36.69093       0.0029629401   0.4775         0.001185176  
    192000   247.89718     -44235.42      -50288.032      19.66586       0.0029367259   0.48           0.0011746903 
    193000   247.7545      -44095.142     -50144.27       110.92175     -0.0057148425   0.4825        -0.002285937  
    194000   245.43184     -44332.93      -50325.348     -304.423        0.031973936    0.485          0.012789574  
    195000   244.40675     -44374.212     -50341.602     -271.75801      0.028836179    0.4875         0.011534472  
    196000   245.93149     -44201.475     -50206.093     -288.78348      0.029195878    0.49           0.011678351  
    197000   248.10954     -44234.825     -50292.622      253.81016     -0.026496369    0.4925        -0.010598548  
    198000   248.18444     -43975.022     -50034.648     -237.05813      0.025097487    0.495          0.010038995  
    199000   243.23466     -44450.62      -50389.392     -242.36974      0.022420959    0.4975         0.0089683835 
    200000   247.34167     -44233.817     -50272.865      53.449746     -0.0071906554   0.5           -0.0028762622 
Loop time of 460.1 on 56 procs for 100000 steps with 12288 atoms

Performance: 18.779 ns/day, 1.278 hours/ns, 217.344 timesteps/s, 2.671 Matom-step/s
99.8% CPU use with 56 MPI tasks x no OpenMP threads

MPI task timing breakdown:
Section |  min time  |  avg time  |  max time  |%varavg| %total
---------------------------------------------------------------
Pair    | 191.4      | 201.63     | 211.74     |  24.5 | 43.82
Bond    | 0.021254   | 0.029296   | 0.045528   |   2.8 |  0.01
Kspace  | 130.61     | 140.07     | 149.58     |  27.6 | 30.44
Neigh   | 21.829     | 21.847     | 21.858     |   0.1 |  4.75
Comm    | 15.739     | 16.719     | 17.813     |  13.3 |  3.63
Output  | 0.22188    | 0.399      | 0.56936    |  16.3 |  0.09
Modify  | 67.054     | 70.241     | 77.088     |  30.3 | 15.27
Other   |            | 9.159      |            |       |  1.99

Nlocal:        219.429 ave         243 max         199 min
Histogram: 3 3 7 9 7 11 7 7 0 2
Nghost:        7281.55 ave        7325 max        7214 min
Histogram: 2 1 5 4 5 6 10 10 7 6
Neighs:        96064.9 ave      107407 max       85900 min
Histogram: 1 5 7 11 7 9 9 4 1 2

Total # of neighbors = 5379636
Ave neighs/atom = 437.7959
Ave special neighs/atom = 2
Neighbor list builds = 1872
Dangerous builds = 0
kspace_style pppm/tip4p 1.0e-5
next nloop
jump SELF loop_start
run 100000 # 100ps
PPPM initialization ...
  extracting TIP4P info from pair style
  using 12-bit tables for long-range coulomb
  G vector (1/distance) = 0.32815664
  grid = 50 75 50
  stencil order = 5
  estimated absolute RMS force accuracy = 0.0035802102
  estimated relative force accuracy = 1.0781697e-05
  using double precision KISS FFT
  3d grid and FFT values/proc = 15776 4000
Generated 0 of 1 mixed pair_coeff terms from geometric mixing rule
Per MPI rank memory allocation (min/avg/max) = 11.17 | 11.25 | 11.32 Mbytes
   Step          Temp          TotEng         PotEng          Pxy           v_sxy         v_strain     v_viscosity  
    200000   247.34167     -44233.796     -50272.845      58.258371     -0.0076778893   0.5           -0.0030711557 
    201000   248.70743     -44271.615     -50344.01       21.309228     -0.0046513535   0.5025        -0.0018605414 
    202000   241.62203     -44351.742     -50251.141     -68.802595      0.0082070667   0.505          0.0032828267 
    203000   245.42935     -44248.399     -50240.757      191.35453     -0.020433927    0.5075        -0.0081735707 
    204000   245.03484     -44148.08      -50130.805     -102.00672      0.0093046146   0.51           0.0037218458 
    205000   244.73172     -44333.005     -50308.329     -65.073364      0.0064833714   0.5125         0.0025933486 
    206000   247.73315     -44163.948     -50212.555     -291.6465       0.028246082    0.515          0.011298433  
    207000   249.29068     -44111.305     -50197.94      -123.99708      0.0099743619   0.5175         0.0039897448 
    208000   245.11632     -44174.346     -50159.061     -209.38329      0.018611222    0.52           0.0074444889 
    209000   244.04347     -44274.03      -50232.551      150.21143     -0.013438922    0.5225        -0.0053755689 
    210000   242.55381     -44335.411     -50257.56      -81.487837      0.0083598363   0.525          0.0033439345 
    211000   249.23205     -44083.125     -50168.328      250.36079     -0.024505826    0.5275        -0.0098023302 
    212000   247.70424     -44244.499     -50292.4       -336.64883      0.035354686    0.53           0.014141875  
    213000   246.04621     -44335.923     -50343.342      133.56032     -0.016666059    0.5325        -0.0066664236 
    214000   244.06422     -44288.206     -50247.233     -376.1239       0.034423455    0.535          0.013769382  
    215000   247.45841     -44286.079     -50327.978     -292.43187      0.026612813    0.5375         0.010645125  
    216000   244.2132      -44258.44      -50221.104      44.682136     -0.0057247076   0.54          -0.002289883  
    217000   249.24099     -44097.692     -50183.114     -324.84688      0.035526783    0.5425         0.014210713  
    218000   244.95759     -44243.994     -50224.833      128.41757     -0.011126611    0.545         -0.0044506444 
    219000   247.24842     -44140.04      -50176.812     -124.46184      0.016683905    0.5475         0.0066735621 
    220000   243.95963     -44306.212     -50262.686     -336.30215      0.030919653    0.55           0.012367861  
    221000   247.64741     -44118.977     -50165.491     -78.58183       0.0059414371   0.5525         0.0023765748 
    222000   244.91815     -44235.71      -50215.586      76.921839     -0.004474455    0.555         -0.001789782  
    223000   246.62149     -44126.951     -50148.416     -125.38986      0.011115153    0.5575         0.0044460613 
    224000   245.03463     -44182.845     -50165.565      248.77583     -0.027178488    0.56          -0.010871395  
    225000   243.86615     -44362.855     -50317.046      195.26671     -0.02177365     0.5625        -0.0087094602 
    226000   247.37391     -44078.193     -50118.029     -0.17655666    -0.00037100321  0.565         -0.00014840129
    227000   244.31233     -44343.955     -50309.039     -77.625488      0.013272667    0.5675         0.0053090666 
    228000   246.27085     -44172.607     -50185.511     -116.77624      0.0089094837   0.57           0.0035637935 
    229000   242.38971     -44383.282     -50301.425     -238.75856      0.020846475    0.5725         0.0083385901 
    230000   244.84318     -44154.91      -50132.956      0.080118602    0.0038633073   0.575          0.0015453229 
    231000   244.61208     -44122.106     -50094.509     -53.464795      0.0049204942   0.5775         0.0019681977 
    232000   246.36123     -44242.309     -50257.419     -29.54028      -0.00079960214  0.58          -0.00031984085
    233000   243.77776     -44271.86      -50223.893     -63.982494      0.0039852199   0.5825         0.001594088  
    234000   242.98434     -44269.317     -50201.977      88.538589     -0.0084808987   0.585         -0.0033923595 
    235000   242.21395     -44353.826     -50267.677      103.51887     -0.010553184    0.5875        -0.0042212735 
    236000   249.86328     -44164.042     -50264.658     -389.1872       0.036721582    0.59           0.014688633  
    237000   245.07444     -44346.391     -50330.084     -96.737554      0.0047932088   0.5925         0.0019172835 
    238000   247.41773     -44303.937     -50344.843      179.63107     -0.018377917    0.595         -0.0073511669 
    239000   242.30314     -44454.367     -50370.396      91.172957     -0.0099606728   0.5975        -0.0039842691 
    240000   250.78255     -44209.465     -50332.525     -108.03994      0.0096855282   0.6            0.0038742113 
    241000   248.60914     -44300.719     -50370.714     -14.37883       0.0026977686   0.6025         0.0010791074 
    242000   246.37087     -44374.679     -50390.025      209.19231     -0.023047278    0.605         -0.0092189112 
    243000   245.95495     -44391.351     -50396.541     -140.7793       0.012067672    0.6075         0.0048270687 
    244000   246.15089     -44177.173     -50187.147     -75.234469      0.0045418545   0.61           0.0018167418 
    245000   246.18558     -44325.643     -50336.464      16.115977     -0.00024218823  0.6125        -9.6875291e-05
    246000   243.4754      -44496.033     -50440.684     -183.62873      0.020510583    0.615          0.0082042332 
    247000   248.44496     -44308.475     -50374.461     -13.165202      0.0024786551   0.6175         0.00099146205
    248000   240.61819     -44493.122     -50368.011     -223.87146      0.018970235    0.62           0.007588094  
    249000   248.96276     -44200.268     -50278.897      5.6146127     -0.0005017769   0.6225        -0.00020071076
    250000   248.85126     -44274.542     -50350.448     -488.47652      0.050134574    0.625          0.020053829  
    251000   247.03879     -44403.627     -50435.28      -489.99439      0.050667754    0.6275         0.020267102  
    252000   247.81512     -44278.517     -50329.126     -186.77951      0.019566812    0.63           0.007826725  
    253000   245.38085     -44236.933     -50228.107     -418.67942      0.04164991     0.6325         0.016659964  
    254000   248.16881     -44249.356     -50308.6       -71.965061      0.0082160091   0.635          0.0032864036 
    255000   245.09492     -44367.126     -50351.318     -5.8912426      0.0013668263   0.6375         0.00054673054
    256000   245.43349     -44303.392     -50295.85      -139.33165      0.014672387    0.64           0.005868955  
    257000   244.89678     -44303.945     -50283.3       -55.17176       0.004836532    0.6425         0.0019346128 
    258000   247.01927     -44156.145     -50187.322      13.31335      -0.0039969471   0.645         -0.0015987788 
    259000   245.96386     -44288.753     -50294.161     -248.32531      0.022798499    0.6475         0.0091193994 
    260000   244.98287     -44264.533     -50245.99      -133.15559      0.013921005    0.65           0.005568402  
    261000   244.99587     -44219.681     -50201.455     -297.63702      0.031213961    0.6525         0.012485584  
    262000   248.09237     -44204.646     -50262.024     -171.42033      0.01647933     0.655          0.0065917321 
    263000   246.24205     -44321.777     -50333.977     -107.1622       0.0091047219   0.6575         0.0036418888 
    264000   246.22469     -44270.606     -50282.382     -383.54462      0.037018314    0.66           0.014807326  
    265000   252.05804     -44011.617     -50165.82      -181.02729      0.021671156    0.6625         0.0086684625 
    266000   243.2546      -44350.983     -50290.243     -280.62362      0.028149379    0.665          0.011259752  
    267000   247.9888      -43974.44      -50029.289     -200.36304      0.019110887    0.6675         0.0076443549 
    268000   247.1414      -44194.061     -50228.219     -94.778105      0.01016061     0.67           0.0040642441 
    269000   247.16304     -44107.579     -50142.266     -339.41024      0.032291026    0.6725         0.01291641   
    270000   247.0144      -44045.29      -50076.348     -346.94755      0.036448878    0.675          0.014579551  
    271000   245.02644     -44193.577     -50176.097     -68.2692        0.0067866996   0.6775         0.0027146798 
    272000   247.76868     -44150.101     -50199.575     -224.42904      0.021104199    0.68           0.0084416796 
    273000   247.92922     -44164.906     -50218.3       -185.61287      0.014838676    0.6825         0.0059354703 
    274000   242.41395     -44371.978     -50290.712      73.983129     -0.0061415269   0.685         -0.0024566108 
    275000   244.67938     -44271.915     -50245.962     -41.289915      0.002899763    0.6875         0.0011599052 
    276000   241.50739     -44264.98      -50161.579     -509.62311      0.049442012    0.69           0.019776805  
    277000   249.61537     -44225.249     -50319.812      60.881538     -0.0049771122   0.6925        -0.0019908449 
    278000   247.7108      -44200.68      -50248.741     -229.71259      0.023706315    0.695          0.0094825261 
    279000   242.63384     -44318.587     -50242.689      21.612547     -0.00099855292  0.6975        -0.00039942117
    280000   247.96882     -44189.162     -50243.522     -63.762165      0.0059947505   0.7            0.0023979002 
    281000   247.03241     -44147.046     -50178.544     -234.45765      0.02474711     0.7025         0.0098988439 
    282000   247.18883     -44078.963     -50114.28      -247.80324      0.026706022    0.705          0.010682409  
    283000   249.33347     -44106.517     -50194.197     -209.78757      0.017453451    0.7075         0.0069813803 
    284000   247.42934     -44248.255     -50289.444     -47.411859      0.004961744    0.71           0.0019846976 
    285000   248.87524     -44236.6       -50313.092      196.06581     -0.015147509    0.7125        -0.0060590036 
    286000   243.0878      -44250.514     -50185.701     -89.501233      0.0075875055   0.715          0.0030350022 
    287000   245.97958     -44102.009     -50107.801      14.951807     -0.0027840084   0.7175        -0.0011136034 
    288000   243.78165     -44410.422     -50362.55       56.864484     -0.0051596164   0.72          -0.0020638466 
    289000   245.51844     -44215.053     -50209.586     -11.620233      0.0026894046   0.7225         0.0010757619 
    290000   244.75573     -44260.94      -50236.85      -57.487576      0.0097536769   0.725          0.0039014708 
    291000   245.30849     -44254.647     -50244.054     -164.96039      0.014112601    0.7275         0.0056450405 
    292000   245.90282     -44322.467     -50326.385      60.823523     -0.0048218535   0.73          -0.0019287414 
    293000   245.92915     -44252.983     -50257.543     -118.36946      0.012194428    0.7325         0.0048777713 
    294000   245.57432     -44192.076     -50187.973     -100.33173      0.0082051627   0.735          0.0032820651 
    295000   244.61057     -44192.8       -50165.167      70.936893     -0.0074764751   0.7375        -0.0029905901 
    296000   246.93721     -44252.898     -50282.071      35.608102     -0.0027213366   0.74          -0.0010885347 
    297000   247.08939     -44263.903     -50296.792      79.454162     -0.0074191105   0.7425        -0.0029676442 
    298000   246.40603     -44254.858     -50271.062     -173.08758      0.017119409    0.745          0.0068477637 
    299000   245.44122     -44317.554     -50310.201     -44.168632      0.0011253237   0.7475         0.00045012946
    300000   243.13652     -44344.216     -50280.592     -43.163812      0.0047870382   0.75           0.0019148153 
Loop time of 497.786 on 56 procs for 100000 steps with 12288 atoms

Performance: 17.357 ns/day, 1.383 hours/ns, 200.890 timesteps/s, 2.469 Matom-step/s
99.8% CPU use with 56 MPI tasks x no OpenMP threads

MPI task timing breakdown:
Section |  min time  |  avg time  |  max time  |%varavg| %total
---------------------------------------------------------------
Pair    | 192.65     | 202.21     | 208.99     |  28.5 | 40.62
Bond    | 0.024173   | 0.031758   | 0.0476     |   2.6 |  0.01
Kspace  | 151.72     | 159.53     | 167.65     |  31.5 | 32.05
Neigh   | 22.461     | 22.479     | 22.489     |   0.1 |  4.52
Comm    | 16.089     | 18.014     | 19.895     |  23.8 |  3.62
Output  | 0.2226     | 0.39947    | 0.56988    |  16.3 |  0.08
Modify  | 74.511     | 80.746     | 92.637     |  50.9 | 16.22
Other   |            | 14.37      |            |       |  2.89

Nlocal:        219.429 ave         241 max         189 min
Histogram: 1 0 2 5 12 11 9 6 7 3
Nghost:        6970.93 ave        7057 max        6906 min
Histogram: 3 7 7 9 10 8 3 5 3 1
Neighs:        96044.5 ave      106867 max       81701 min
Histogram: 1 0 2 5 12 15 7 7 3 4

Total # of neighbors = 5378491
Ave neighs/atom = 437.70272
Ave special neighs/atom = 2
Neighbor list builds = 1914
Dangerous builds = 0
kspace_style pppm/tip4p 1.0e-5
next nloop
jump SELF loop_start
run 100000 # 100ps
PPPM initialization ...
  extracting TIP4P info from pair style
  using 12-bit tables for long-range coulomb
  G vector (1/distance) = 0.3306794
  grid = 50 64 50
  stencil order = 5
  estimated absolute RMS force accuracy = 0.0030797115
  estimated relative force accuracy = 9.2744596e-06
  using double precision KISS FFT
  3d grid and FFT values/proc = 13600 3200
Generated 0 of 1 mixed pair_coeff terms from geometric mixing rule
Per MPI rank memory allocation (min/avg/max) = 11.08 | 11.19 | 11.29 Mbytes
   Step          Temp          TotEng         PotEng          Pxy           v_sxy         v_strain     v_viscosity  
    300000   243.13838     -44344.182     -50280.603     -37.211514      0.0041762066   0.75           0.0016704827 
    301000   246.34862     -44319.663     -50334.465     -206.95996      0.018350182    0.7525         0.007340073  
    302000   244.32083     -44294.355     -50259.647      53.660178     -0.0074260755   0.755         -0.0029704302 
    303000   249.1497      -44281.127     -50364.32       56.220848     -0.0061057158   0.7575        -0.0024422863 
    304000   246.75983     -44286.398     -50311.24       11.585894     -0.0028471991   0.76          -0.0011388796 
    305000   246.27866     -44282.739     -50295.834     -374.32277      0.037978586    0.7625         0.015191434  
    306000   243.57805     -44296.111     -50243.267     -112.03097      0.012642937    0.765          0.0050571747 
    307000   245.13857     -44117.689     -50102.947      153.91884     -0.015020746    0.7675        -0.0060082983 
    308000   247.1961      -44146.382     -50181.876      237.46223     -0.022527906    0.77          -0.0090111624 
    309000   247.0417      -44167.462     -50199.186      89.86251      -0.0071131987   0.7725        -0.0028452795 
    310000   247.40628     -44144.528     -50185.154     -187.39207      0.017960287    0.775          0.0071841149 
    311000   246.15737     -44272.691     -50282.824     -104.61008      0.0081252392   0.7775         0.0032500957 
    312000   246.0649      -44221.869     -50229.744     -252.40436      0.026136797    0.78           0.010454719  
    313000   244.26796     -44231.521     -50195.523     -2.6640934     -0.0016524903   0.7825        -0.00066099613
    314000   245.32094     -44210.637     -50200.348     -35.828235      0.0062071762   0.785          0.0024828705 
    315000   243.14711     -44279.766     -50216.401     -339.01599      0.032302736    0.7875         0.012921094  
    316000   244.66313     -44218.873     -50192.523     -335.67781      0.032438488    0.79           0.012975395  
    317000   245.61167     -44204.451     -50201.26      -498.26414      0.053171458    0.7925         0.021268583  
    318000   246.76105     -44161.22      -50186.093     -196.99114      0.020093776    0.795          0.0080375104 
    319000   243.64082     -44192.47      -50141.159     -234.36205      0.021608567    0.7975         0.0086434269 
    320000   247.18029     -44225.31      -50260.418     -205.05731      0.020677722    0.8            0.0082710889 
    321000   245.39929     -44208.855     -50200.479     -358.69826      0.037405916    0.8025         0.014962366  
    322000   246.4091      -44180.894     -50197.173     -219.4343       0.02088465     0.805          0.0083538601 
    323000   243.32197     -44460.338     -50401.242     -188.34276      0.018420949    0.8075         0.0073683796 
    324000   248.19565     -44324.921     -50384.82      -168.87865      0.017005064    0.81           0.0068020258 
    325000   249.37468     -44293.42      -50382.106      248.71049     -0.024732005    0.8125        -0.0098928019 
    326000   243.06742     -44390.742     -50325.432      85.37169      -0.0091973906   0.815         -0.0036789562 
    327000   249.13289     -44120.744     -50203.527      11.438954     -0.002072522    0.8175        -0.00082900882
    328000   248.23478     -44310.094     -50370.948     -238.25824      0.021519044    0.82           0.0086076174 
    329000   246.2343      -44284.953     -50296.964      181.12467     -0.017459774    0.8225        -0.0069839095 
    330000   242.2128      -44431.284     -50345.107     -1.8911015      0.00054965792  0.825          0.00021986317
    331000   245.2983      -44304.638     -50293.796     -109.99705      0.0084568224   0.8275         0.0033827289 
    332000   242.15512     -44248.304     -50160.719      22.6878       -0.0054262467   0.83          -0.0021704987 
    333000   245.00086     -44226.78      -50208.676     -42.539345      0.0056099854   0.8325         0.0022439941 
    334000   243.03965     -44295.712     -50229.723      32.43943      -0.0041239318   0.835         -0.0016495727 
    335000   241.29885     -44269.766     -50161.274      25.894864     -0.0041384584   0.8375        -0.0016553834 
    336000   245.31709     -44292.244     -50281.861     -428.97187      0.04437422     0.84           0.017749688  
    337000   248.45232     -44186.145     -50252.311      40.762159     -0.0032281073   0.8425        -0.0012912429 
    338000   246.44562     -44259.47      -50276.641     -220.61225      0.023519634    0.845          0.0094078536 
    339000   247.26116     -44170.282     -50207.365     -213.21791      0.019528009    0.8475         0.0078112034 
    340000   250.02962     -44257.275     -50361.952      106.18923     -0.011328605    0.85          -0.0045314418 
    341000   246.73406     -44096.5       -50120.714     -146.63108      0.011070453    0.8525         0.0044281812 
    342000   245.83574     -44264.411     -50266.691     -11.513567      0.00042574932  0.855          0.00017029973
    343000   242.37473     -44332.425     -50250.202     -191.50803      0.022599125    0.8575         0.00903965   
    344000   248.17456     -44063.475     -50122.859      178.08916     -0.016995118    0.86          -0.0067980472 
    345000   244.61761     -44388.547     -50361.085     -446.80639      0.04231454     0.8625         0.016925816  
    346000   245.31724     -44074.309     -50063.93       270.53649     -0.026887138    0.865         -0.010754855  
    347000   246.16148     -44292.603     -50302.836     -69.939057      0.0049270939   0.8675         0.0019708376 
    348000   242.132       -44297.197     -50209.048      380.1132      -0.036625153    0.87          -0.014650061  
    349000   245.45724     -44224.724     -50217.763      111.45462     -0.01354107     0.8725        -0.0054164279 
    350000   245.84564     -44245.911     -50248.432     -435.31206      0.041794227    0.875          0.016717691  
    351000   247.32509     -44198.806     -50237.45      -23.592794      0.0040530555   0.8775         0.0016212222 
    352000   249.84656     -44125.184     -50225.391     -287.03811      0.030519651    0.88           0.01220786   
    353000   245.26858     -44164.751     -50153.184     -137.8655       0.013858521    0.8825         0.0055434085 
    354000   244.29418     -44179.573     -50144.215     -72.975796      0.0046210141   0.885          0.0018484056 
    355000   244.27468     -44348.393     -50312.558     -198.06487      0.020230892    0.8875         0.0080923568 
    356000   245.37865     -44142.097     -50133.216     -213.64994      0.024063191    0.89           0.0096252764 
    357000   250.00022     -44195.545     -50299.504     -44.944991      0.0057957795   0.8925         0.0023183118 
    358000   247.83699     -44234.602     -50285.744     -399.27273      0.038878877    0.895          0.015551551  
    359000   245.18012     -44388.153     -50374.426     -59.122037      0.0043525075   0.8975         0.001741003  
    360000   245.64679     -44291.963     -50289.63      -165.74768      0.015656308    0.9            0.0062625233 
    361000   245.85313     -44499.289     -50501.994      103.99653     -0.012376333    0.9025        -0.0049505332 
    362000   250.72334     -44283.909     -50405.523      51.390751     -0.0046015515   0.905         -0.0018406206 
    363000   243.25596     -44591.137     -50530.429      76.756368     -0.0070556883   0.9075        -0.0028222753 
    364000   249.87862     -44213.252     -50314.242      39.441322     -0.0043650225   0.91          -0.001746009  
    365000   241.88498     -44504.079     -50409.898     -432.65214      0.043148516    0.9125         0.017259407  
    366000   244.02281     -44398.677     -50356.693     -433.89856      0.042567141    0.915          0.017026856  
    367000   245.32301     -44358.779     -50348.54      -214.97159      0.020680372    0.9175         0.0082721487 
    368000   251.79226     -44137.877     -50285.59      -130.75673      0.013576035    0.92           0.005430414  
    369000   243.71753     -44412.913     -50363.475     -130.02683      0.013215988    0.9225         0.0052863951 
    370000   247.23963     -44310.512     -50347.069      59.752539     -0.005864761    0.925         -0.0023459044 
    371000   246.74741     -44246.927     -50271.466      61.285136     -0.0070593193   0.9275        -0.0028237277 
    372000   241.16045     -44268.075     -50156.204      313.11084     -0.030996998    0.93          -0.012398799  
    373000   248.1963      -44195.475     -50255.39       15.720744     -0.0015931252   0.9325        -0.00063725008
    374000   244.58301     -44194.877     -50166.571     -62.597511      0.0060888532   0.935          0.0024355413 
    375000   245.98395     -44189.79      -50195.689     -318.51185      0.034525458    0.9375         0.013810183  
    376000   246.56999     -44206.594     -50226.802     -155.99989      0.018519757    0.94           0.0074079029 
    377000   252.52149     -44101.766     -50267.284     -217.10356      0.021984359    0.9425         0.0087937435 
    378000   248.73099     -44146.812     -50219.782     -412.72361      0.040143031    0.945          0.016057212  
    379000   242.62576     -44448.17      -50372.076     -252.72915      0.025530499    0.9475         0.0102122    
    380000   247.74674     -44335.291     -50384.23      -156.89518      0.014568543    0.95           0.0058274172 
    381000   248.0441      -44357.029     -50413.228     -353.95916      0.033334989    0.9525         0.013333996  
    382000   246.15502     -44400.988     -50411.064     -154.89751      0.011035377    0.955          0.0044141509 
    383000   246.27545     -44186.538     -50199.553     -26.175035     -0.0032233658   0.9575        -0.0012893463 
    384000   246.41659     -44246.824     -50263.286     -13.337314      0.002731978    0.96           0.0010927912 
    385000   243.06619     -44359.735     -50294.394     -119.07469      0.01048337     0.9625         0.0041933479 
    386000   244.81815     -44357.026     -50334.46      -49.475359      0.003620033    0.965          0.0014480132 
    387000   244.63952     -44327.404     -50300.478     -250.40465      0.019949286    0.9675         0.0079797144 
    388000   247.02368     -44418.533     -50449.817     -260.42979      0.030274547    0.97           0.012109819  
    389000   243.63539     -44225.797     -50174.354     -332.3231       0.03087795     0.9725         0.01235118   
    390000   244.71473     -44339.563     -50314.473     -545.94295      0.054565302    0.975          0.021826121  
    391000   251.1031      -44279.617     -50410.504     -211.80552      0.025575076    0.9775         0.010230031  
    392000   245.44405     -44359.074     -50351.79      -170.27085      0.014055099    0.98           0.0056220397 
    393000   244.42707     -44340.16      -50308.046     -216.42124      0.0213028      0.9825         0.00852112   
    394000   245.67516     -44378.597     -50376.956     -115.25352      0.01051474     0.985          0.0042058961 
    395000   244.62198     -44332.542     -50305.187     -66.858244      0.0068136911   0.9875         0.0027254764 
    396000   242.46759     -44371.496     -50291.54      -150.34942      0.017394576    0.99           0.0069578304 
    397000   250.27932     -44196.325     -50307.099     -116.21366      0.010968486    0.9925         0.0043873945 
    398000   246.0337      -44262.041     -50269.154     -64.96167       0.0077459824   0.995          0.0030983929 
    399000   246.30018     -44298.827     -50312.447     -42.201578      0.0044860874   0.9975         0.0017944349 
    400000   247.80702     -44175.863     -50226.273     -258.38174      0.026903518    1              0.010761407  
Loop time of 459.787 on 56 procs for 100000 steps with 12288 atoms

Performance: 18.791 ns/day, 1.277 hours/ns, 217.492 timesteps/s, 2.673 Matom-step/s
99.8% CPU use with 56 MPI tasks x no OpenMP threads

MPI task timing breakdown:
Section |  min time  |  avg time  |  max time  |%varavg| %total
---------------------------------------------------------------
Pair    | 184.4      | 200.5      | 209.65     |  33.0 | 43.61
Bond    | 0.017848   | 0.028377   | 0.044628   |   2.9 |  0.01
Kspace  | 132.8      | 141.25     | 156.6      |  37.5 | 30.72
Neigh   | 22.532     | 22.547     | 22.558     |   0.1 |  4.90
Comm    | 15.422     | 16.337     | 17.673     |  12.9 |  3.55
Output  | 0.2228     | 0.40002    | 0.57018    |  16.3 |  0.09
Modify  | 66.593     | 69.82      | 76.56      |  30.4 | 15.19
Other   |            | 8.897      |            |       |  1.94

Nlocal:        219.429 ave         237 max         199 min
Histogram: 1 3 4 7 7 10 13 5 4 2
Nghost:        6848.98 ave        6892 max        6792 min
Histogram: 1 1 1 8 9 10 14 4 5 3
Neighs:        96037.7 ave      103731 max       86140 min
Histogram: 1 2 4 3 13 10 10 5 6 2

Total # of neighbors = 5378109
Ave neighs/atom = 437.67163
Ave special neighs/atom = 2
Neighbor list builds = 1900
Dangerous builds = 0
kspace_style pppm/tip4p 1.0e-5
next nloop
jump SELF loop_start
run 100000 # 100ps
PPPM initialization ...
  extracting TIP4P info from pair style
  using 12-bit tables for long-range coulomb
  G vector (1/distance) = 0.32815664
  grid = 50 50 50
  stencil order = 5
  estimated absolute RMS force accuracy = 0.0035802102
  estimated relative force accuracy = 1.0781697e-05
  using double precision KISS FFT
  3d grid and FFT values/proc = 11424 2800
Generated 0 of 1 mixed pair_coeff terms from geometric mixing rule
Per MPI rank memory allocation (min/avg/max) = 10.91 | 11.02 | 11.12 Mbytes
   Step          Temp          TotEng         PotEng          Pxy           v_sxy         v_strain     v_viscosity  
    400000   247.80702     -44175.831     -50226.241     -253.48333      0.026407186    1              0.010562874  
    401000   247.99737     -44233.28      -50288.338      50.866873     -0.0064762364   1.0025        -0.0025904945 
    402000   245.82442     -44312.871     -50314.874      31.5739       -0.0023198323   1.005         -0.00092793291
    403000   247.06893     -44125.723     -50158.112     -208.74733      0.024480949    1.0075         0.0097923796 
    404000   242.43701     -44437.005     -50356.302     -57.916594      0.0058117432   1.01           0.0023246973 
    405000   244.98647     -44194.458     -50176.003     -192.62256      0.019364514    1.0125         0.0077458054 
    406000   246.24807     -44258.919     -50271.267     -298.07959      0.027158838    1.015          0.010863535  
    407000   248.52958     -44163.281     -50231.334     -390.96268      0.038319544    1.0175         0.015327818  
    408000   246.5416      -44288.587     -50308.101     -234.49701      0.024699864    1.02           0.0098799457 
    409000   243.59404     -44305.037     -50252.584     -224.66135      0.019058214    1.0225         0.0076232854 
    410000   247.76148     -44290.253     -50339.552      10.262642     -0.0029433034   1.025         -0.0011773214 
    411000   246.57706     -44210.287     -50230.667     -321.03169      0.031213256    1.0275         0.012485302  
    412000   247.54402     -44340.103     -50384.092     -260.92943      0.027475006    1.03           0.010990002  
    413000   244.6319      -44377.868     -50350.755      124.77351     -0.014540954    1.0325        -0.0058163817 
    414000   249.83564     -44330.492     -50430.433     -47.607703      0.0060594465   1.035          0.0024237786 
    415000   247.56138     -44329.439     -50373.852     -157.44799      0.01470466     1.0375         0.0058818642 
    416000   240.94522     -44494.063     -50376.937     -153.96816      0.011355057    1.04           0.0045420228 
    417000   246.91602     -44178.239     -50206.895     -174.2284       0.01486992     1.0425         0.005947968  
    418000   244.51034     -44363.621     -50333.54      -55.864663      0.0041433656   1.045          0.0016573462 
    419000   247.36876     -44183.346     -50223.056      35.943208     -0.0051877285   1.0475        -0.0020750914 
    420000   245.85861     -44283.443     -50286.281     -201.95267      0.018955371    1.05           0.0075821484 
    421000   243.95167     -44462.6       -50418.879     -166.46752      0.017770284    1.0525         0.0071081134 
    422000   246.20346     -44299.834     -50311.092     -423.41215      0.044943426    1.055          0.017977371  
    423000   244.41773     -44276.803     -50244.461     -454.29741      0.047453571    1.0575         0.018981428  
    424000   248.21407     -44196.576     -50256.925     -172.37018      0.012029456    1.06           0.0048117822 
    425000   243.8391      -44383.503     -50337.033      278.53857     -0.02826835     1.0625        -0.01130734   
    426000   246.91883     -44153.18      -50181.905     -113.22268      0.014692542    1.065          0.0058770168 
    427000   245.8177      -44264.115     -50265.954      100.67394     -0.008209673    1.0675        -0.0032838692 
    428000   248.99019     -44176.734     -50256.032     -342.41002      0.03452315     1.07           0.01380926   
    429000   246.75077     -44238.12      -50262.741     -71.539447      0.0073783805   1.0725         0.0029513522 
    430000   245.59219     -44290.086     -50286.419      22.375772     -0.00054924693  1.075         -0.00021969877
    431000   245.068       -44379.885     -50363.42       195.08335     -0.017844447    1.0775        -0.0071377789 
    432000   247.27737     -44268.947     -50306.426      154.88213     -0.018715049    1.08          -0.0074860194 
    433000   245.79697     -44246.105     -50247.438     -11.533939      0.0011489106   1.0825         0.00045956422
    434000   244.20335     -44434.391     -50396.815     -227.31495      0.022481247    1.085          0.0089924987 
    435000   245.61558     -44286.605     -50283.51      -95.031714      0.0094804582   1.0875         0.0037921833 
    436000   246.53289     -44298.348     -50317.649     -145.43594      0.013907847    1.09           0.0055631386 
    437000   244.89254     -44290.293     -50269.544     -256.56645      0.026254736    1.0925         0.010501894  
    438000   244.22054     -44262.717     -50225.561     -381.964        0.038709008    1.095          0.015483603  
    439000   243.96975     -44228.77      -50185.49      -338.39958      0.031201089    1.0975         0.012480436  
    440000   249.62676     -44070.597     -50165.438     -343.13965      0.034385274    1.1            0.01375411   
    441000   245.33931     -44297.19      -50287.349      41.97135      -0.0036870061   1.1025        -0.0014748024 
    442000   245.41435     -44281.967     -50273.958     -226.85743      0.020525456    1.105          0.0082101823 
    443000   245.71411     -44299.925     -50299.235     -184.41979      0.016384662    1.1075         0.0065538648 
    444000   244.55043     -44267.729     -50238.627     -290.54763      0.026631592    1.11           0.010652637  
    445000   245.46102     -44255.64      -50248.771     -13.389332      0.002820436    1.1125         0.0011281744 
    446000   246.70804     -44381.138     -50404.716     -286.38162      0.032228655    1.115          0.012891462  
    447000   247.0166      -44154.308     -50185.42       110.2042      -0.0094891203   1.1175        -0.0037956481 
    448000   242.63208     -44432.012     -50356.072     -185.74729      0.016699294    1.12           0.0066797177 
    449000   247.61953     -44172.104     -50217.937     -341.26397      0.037144424    1.1225         0.01485777   
    450000   245.55706     -44519.056     -50514.532     -232.46543      0.023690132    1.125          0.0094760528 
    451000   247.28703     -44323.148     -50360.862     -295.00319      0.026777745    1.1275         0.010711098  
    452000   247.45342     -44181.852     -50223.629      81.890747     -0.011522768    1.13          -0.004609107  
    453000   247.62929     -44295.001     -50341.072     -81.825398      0.0067882438   1.1325         0.0027152975 
    454000   246.91824     -44121.848     -50150.558     -258.38777      0.027224199    1.135          0.01088968   
    455000   247.69238     -44193.792     -50241.403     -218.34461      0.028579315    1.1375         0.011431726  
    456000   247.27177     -44184.072     -50221.414     -154.18776      0.013599548    1.14           0.0054398191 
    457000   244.9189      -44304.351     -50284.246      13.621604      0.002325283    1.1425         0.0009301132 
    458000   247.57219     -44276.481     -50321.158     -427.93545      0.041944227    1.145          0.016777691  
    459000   245.38548     -44422.502     -50413.789     -217.74924      0.021019742    1.1475         0.0084078969 
    460000   246.40346     -44193.444     -50209.585      45.37992      -0.0036416492   1.15          -0.0014566597 
    461000   246.28315     -44299.362     -50312.565     -241.14096      0.022578991    1.1525         0.0090315962 
    462000   249.55358     -44238.936     -50331.99      -86.651225      0.0097188683   1.155          0.0038875473 
    463000   245.09643     -44368.256     -50352.485     -449.68257      0.046639076    1.1575         0.01865563   
    464000   239.99313     -44326.403     -50186.031     -43.542071      0.0029515665   1.16           0.0011806266 
    465000   249.39186     -44237.118     -50326.224     -76.393852      0.010233309    1.1625         0.0040933237 
    466000   244.46201     -44254.508     -50223.247     -342.7486       0.034366338    1.165          0.013746535  
    467000   245.6037      -44377.356     -50373.971     -43.460415      0.0076836996   1.1675         0.0030734799 
    468000   248.67843     -44234.259     -50305.945     -41.132291      0.0037702908   1.17           0.0015081163 
    469000   243.91492     -44313.837     -50269.219     -33.388911      0.0019840794   1.1725         0.00079363176
    470000   245.85228     -44306.308     -50308.992     -231.89835      0.027433335    1.175          0.010973334  
    471000   246.7582      -44318.807     -50343.61      -249.78268      0.021395237    1.1775         0.0085580949 
    472000   246.273       -44255.103     -50268.059     -48.12534       0.0039249274   1.18           0.0015699709 
    473000   247.04088     -44319.676     -50351.381      44.0903       -0.0022591459   1.1825        -0.00090365837
    474000   250.66369     -44122.093     -50242.252     -155.4019       0.019083959    1.185          0.0076335837 
    475000   247.71465     -44142.509     -50190.665     -19.15262      -0.000268363    1.1875        -0.0001073452 
    476000   247.23426     -44105.199     -50141.625     -323.06128      0.031879963    1.19           0.012751985  
    477000   243.5989      -44274.63      -50222.296     -72.116677      0.0047218139   1.1925         0.0018887256 
    478000   244.45615     -44307         -50275.597     -86.340977      0.0096101985   1.195          0.0038440794 
    479000   248.15914     -44166.373     -50225.381     -68.919881      0.0048352661   1.1975         0.0019341064 
    480000   243.86522     -44273.671     -50227.84       98.388687     -0.01219015     1.2           -0.0048760601 
    481000   245.86042     -44234.572     -50237.455     -269.22577      0.027662043    1.2025         0.011064817  
    482000   247.9385      -44293.064     -50346.684     -67.808937      0.0083882749   1.205          0.00335531   
    483000   244.49427     -44478.01      -50447.537      25.773433     -0.0018317492   1.2075        -0.0007326997 
    484000   244.54922     -44292.562     -50263.431     -131.22187      0.0097234421   1.21           0.0038893769 
    485000   249.54435     -44240.235     -50333.064      198.00518     -0.023845877    1.2125        -0.0095383508 
    486000   246.38498     -44190.465     -50206.155     -31.578302      0.0027549064   1.215          0.0011019625 
    487000   249.26688     -44188.018     -50274.072     -43.314308      0.0077026226   1.2175         0.003081049  
    488000   248.2256      -44256.242     -50316.872     -196.47432      0.020244972    1.22           0.0080979887 
    489000   247.2941      -44242.575     -50280.462     -3.863386       0.00098102896  1.2225         0.00039241158
    490000   243.99316     -44334.983     -50292.275     -165.60597      0.018407825    1.225          0.0073631302 
    491000   247.31143     -44415.947     -50454.257     -262.80405      0.02570226     1.2275         0.010280904  
    492000   240.41104     -44311.901     -50181.733     -437.90974      0.043566579    1.23           0.017426631  
    493000   246.4539      -44280.844     -50298.217     -62.613858      0.0038865715   1.2325         0.0015546286 
    494000   246.72244     -44310.089     -50334.018     -277.6703       0.022516389    1.235          0.0090065558 
    495000   247.41563     -44305.627     -50346.482     -158.73102      0.017359234    1.2375         0.0069436934 
    496000   245.73487     -44221.532     -50221.35       275.74988     -0.027068773    1.24          -0.010827509  
    497000   245.70319     -44263.937     -50262.98      -191.08962      0.023936936    1.2425         0.0095747743 
    498000   245.27196     -44313.354     -50301.869     -223.2105       0.018324659    1.245          0.0073298637 
    499000   247.58187     -44250.533     -50295.446     -46.654122      0.0047847869   1.2475         0.0019139148 
    500000   244.16994     -44350.107     -50311.715     -69.27281       0.0085338958   1.25           0.0034135583 
Loop time of 425.455 on 56 procs for 100000 steps with 12288 atoms

Performance: 20.308 ns/day, 1.182 hours/ns, 235.043 timesteps/s, 2.888 Matom-step/s
99.8% CPU use with 56 MPI tasks x no OpenMP threads

MPI task timing breakdown:
Section |  min time  |  avg time  |  max time  |%varavg| %total
---------------------------------------------------------------
Pair    | 188.65     | 198.77     | 210.09     |  39.0 | 46.72
Bond    | 0.01678    | 0.026422   | 0.043807   |   3.0 |  0.01
Kspace  | 108.95     | 119.17     | 129.06     |  48.5 | 28.01
Neigh   | 22.162     | 22.178     | 22.186     |   0.1 |  5.21
Comm    | 14.754     | 15.724     | 17.288     |  17.0 |  3.70
Output  | 0.22211    | 0.39911    | 0.56923    |  16.3 |  0.09
Modify  | 52.074     | 56.418     | 66.847     |  46.1 | 13.26
Other   |            | 12.76      |            |       |  3.00

Nlocal:        219.429 ave         239 max         202 min
Histogram: 2 3 5 10 11 10 4 10 0 1
Nghost:        6967.41 ave        7011 max        6915 min
Histogram: 5 3 5 2 5 8 12 5 7 4
Neighs:        96043.8 ave      104876 max       87985 min
Histogram: 3 2 5 11 8 12 7 6 1 1

Total # of neighbors = 5378453
Ave neighs/atom = 437.69963
Ave special neighs/atom = 2
Neighbor list builds = 1869
Dangerous builds = 0
kspace_style pppm/tip4p 1.0e-5
next nloop
jump SELF loop_start
run 100000 # 100ps
PPPM initialization ...
  extracting TIP4P info from pair style
  using 12-bit tables for long-range coulomb
  G vector (1/distance) = 0.32881326
  grid = 50 64 50
  stencil order = 5
  estimated absolute RMS force accuracy = 0.003443216
  estimated relative force accuracy = 1.0369143e-05
  using double precision KISS FFT
  3d grid and FFT values/proc = 13600 3200
Generated 0 of 1 mixed pair_coeff terms from geometric mixing rule
Per MPI rank memory allocation (min/avg/max) = 11.08 | 11.19 | 11.29 Mbytes
   Step          Temp          TotEng         PotEng          Pxy           v_sxy         v_strain     v_viscosity  
    500000   244.17131     -44350.074     -50311.715     -64.209307      0.0080173691   1.25           0.0032069476 
    501000   245.31141     -44331.705     -50321.183      130.17435     -0.011822171    1.2525        -0.0047288686 
    502000   246.88786     -44198.522     -50226.49      -147.41977      0.017720136    1.255          0.0070880544 
    503000   246.29113     -44250.62      -50264.018      31.404154     -0.0026795314   1.2575        -0.0010718126 
    504000   247.79207     -44311.916     -50361.961     -41.706897      0.0057730168   1.26           0.0023092067 
    505000   246.56883     -44304.566     -50324.745     -120.83485      0.011207235    1.2625         0.0044828939 
    506000   247.59613     -44293.667     -50338.928     -61.815318      0.0085993375   1.265          0.003439735  
    507000   243.73245     -44407.171     -50358.097      282.06462     -0.021904164    1.2675        -0.0087616656 
    508000   242.7358      -44330.062     -50256.654      134.37371     -0.013317067    1.27          -0.0053268269 
    509000   245.37579     -44411.235     -50402.285     -102.2563       0.0083769428   1.2725         0.0033507771 
    510000   242.81682     -44469.609     -50398.18      -156.64399      0.015716918    1.275          0.0062867673 
    511000   245.58913     -44278.809     -50275.068     -18.432773     -0.0029451341   1.2775        -0.0011780536 
    512000   246.24666     -44336.17      -50348.483     -408.09243      0.04153503     1.28           0.016614012  
    513000   246.35027     -44199.402     -50214.244     -281.27395      0.028090675    1.2825         0.01123627   
    514000   245.35052     -44365.363     -50355.796     -496.91615      0.05027622     1.285          0.020110488  
    515000   249.40184     -44161.805     -50251.154     -439.53817      0.041907142    1.2875         0.016762857  
    516000   243.02298     -44344.912     -50278.517     -49.155925      0.0056221633   1.29           0.0022488653 
    517000   246.46114     -44184.672     -50202.221     -161.01324      0.01614588     1.2925         0.006458352  
    518000   245.88096     -44252.117     -50255.501     -283.94761      0.030440146    1.295          0.012176058  
    519000   247.09227     -44204.653     -50237.612      113.37493     -0.011434039    1.2975        -0.0045736155 
    520000   247.9998      -44140.255     -50195.373     -167.38685      0.013896899    1.3            0.0055587595 
    521000   247.80468     -44164.736     -50215.089     -391.99885      0.04023828     1.3025         0.016095312  
    522000   247.01343     -44213.024     -50244.058     -136.75245      0.016962666    1.305          0.0067850663 
    523000   250.01802     -43986.429     -50090.822     -21.481092      0.0031708691   1.3075         0.0012683477 
    524000   244.24971     -44194.253     -50157.809     -193.76278      0.020804028    1.31           0.0083216113 
    525000   243.73294     -44178.039     -50128.977     -141.28261      0.016496448    1.3125         0.006598579  
    526000   246.34448     -44183.94      -50198.642     -465.53512      0.045581584    1.315          0.018232634  
    527000   248.14968     -44170.615     -50229.392      242.14859     -0.024330138    1.3175        -0.0097320553 
    528000   247.36945     -44157.54      -50197.266      259.65338     -0.028616352    1.32          -0.011446541  
    529000   244.68716     -44222.23      -50196.466     -287.6984       0.029586286    1.3225         0.011834514  
    530000   246.54327     -44214.018     -50233.573     -381.91915      0.037046606    1.325          0.014818642  
    531000   252.12069     -44046.437     -50202.169     -69.518716      0.0021881539   1.3275         0.00087526154
    532000   243.18078     -44309.664     -50247.121     -230.24868      0.023876739    1.33           0.0095506957 
    533000   245.6119      -44171.332     -50168.147     -231.68244      0.020962383    1.3325         0.0083849531 
    534000   246.75638     -44220.988     -50245.746      34.655084     -0.0073895467   1.335         -0.0029558187 
    535000   244.2432      -44308.22      -50271.617     -32.299481      0.003581324    1.3375         0.0014325296 
    536000   248.20492     -44164.352     -50224.478     -259.77777      0.027294315    1.34           0.010917726  
    537000   246.75483     -44362.146     -50386.866     -292.94536      0.028988516    1.3425         0.011595407  
    538000   244.58494     -44351.573     -50323.314     -365.89497      0.038280886    1.345          0.015312354  
    539000   246.57793     -44190.264     -50210.665     -27.346412      0.0062989612   1.3475         0.0025195845 
    540000   241.2439      -44466.354     -50356.521     -193.62789      0.020175256    1.35           0.0080701023 
    541000   250.96355     -44178.602     -50306.082     -23.293253      0.0011619668   1.3525         0.0004647867 
    542000   246.90556     -44211.451     -50239.851     -71.431855      0.0079407812   1.355          0.0031763125 
[...]
   1862000   246.03407     -44311.958     -50319.08      -280.91783      0.028544124    4.655          0.01141765   
   1863000   244.40905     -44166.794     -50134.241     -95.285595      0.0084000974   4.6575         0.0033600389 
   1864000   245.30519     -44145.911     -50135.237      9.7011691      0.00016922503  4.66           6.7690011e-05
   1865000   244.53943     -44226.168     -50196.798     -131.88738      0.012326235    4.6625         0.004930494  
   1866000   245.6069      -44165.133     -50161.826      62.649535     -0.0062908877   4.665         -0.0025163551 
   1867000   248.94622     -44148.248     -50226.473     -187.64992      0.017048995    4.6675         0.0068195979 
   1868000   241.69687     -44265.94      -50167.166     -6.9029143      0.0026812533   4.67           0.0010725013 
   1869000   247.20975     -44141.854     -50177.682     -231.43529      0.020692523    4.6725         0.0082770091 
   1870000   245.41429     -44272.65      -50264.64      -150.88433      0.015698948    4.675          0.0062795794 
   1871000   245.26683     -44191.47      -50179.86      -140.49834      0.012159175    4.6775         0.00486367   
   1872000   251.91733     -44157.188     -50307.955     -135.22679      0.01273467     4.68           0.0050938679 
   1873000   248.18143     -44252.851     -50312.403     -177.00586      0.013627201    4.6825         0.0054508805 
   1874000   245.13509     -44300.815     -50285.988     -515.06699      0.053172787    4.685          0.021269115  
   1875000   247.21568     -44034.166     -50070.138     -84.432295      0.0085398434   4.6875         0.0034159373 
   1876000   240.40243     -44324.956     -50194.577      77.875873     -0.0072338956   4.69          -0.0028935582 
   1877000   244.74211     -43985.858     -49961.436     -131.41192      0.0094783055   4.6925         0.0037913222 
   1878000   250.05019     -44092.04      -50197.219     -263.37689      0.02512502     4.695          0.010050008  
   1879000   246.82848     -44332.256     -50358.775     -97.295275      0.0078602167   4.6975         0.0031440867 
   1880000   245.85125     -43966.918     -49969.576     -133.87649      0.011810626    4.7            0.0047242503 
   1881000   247.62613     -44114.668     -50160.662     -339.88055      0.034179249    4.7025         0.013671699  
   1882000   246.11702     -44159.745     -50168.893      116.33214     -0.011786167    4.705         -0.0047144666 
   1883000   246.99551     -43987.946     -50018.543     -476.34565      0.049166675    4.7075         0.01966667   
   1884000   241.4009      -44387.691     -50281.69       149.49006     -0.014218953    4.71          -0.0056875811 
   1885000   246.53644     -44113.543     -50132.931     -624.40924      0.061812316    4.7125         0.024724926  
   1886000   250.15266     -43907.612     -50015.293     -360.22623      0.03457415     4.715          0.01382966   
   1887000   248.38149     -44143.766     -50208.203     -223.99537      0.023584513    4.7175         0.0094338053 
   1888000   248.50743     -44163.152     -50230.663     -194.78641      0.022313869    4.72           0.0089255475 
   1889000   247.79187     -44173.4       -50223.44      -328.02196      0.035780985    4.7225         0.014312394  
   1890000   242.05438     -44252.845     -50162.799     -150.83325      0.018456524    4.725          0.0073826095 
   1891000   245.42347     -44111.264     -50103.478     -76.827419      0.0036031685   4.7275         0.0014412674 
   1892000   243.6355      -44164.966     -50113.525     -115.46872      0.013075139    4.73           0.0052300555 
   1893000   244.37117     -44194.889     -50161.411      6.729818       0.00061599238  4.7325         0.00024639695
   1894000   248.39199     -43912.519     -49977.211      120.81629     -0.010512434    4.735         -0.0042049737 
   1895000   243.16979     -44317.869     -50255.058     -198.88828      0.019024152    4.7375         0.007609661  
   1896000   245.26981     -44106.906     -50095.368     -133.28498      0.015124034    4.74           0.0060496135 
   1897000   242.03052     -44306.374     -50215.746      333.04249     -0.029830207    4.7425        -0.011932083  
   1898000   245.52014     -44126.813     -50121.387     -53.875622      0.0047276402   4.745          0.0018910561 
   1899000   248.84455     -44146.038     -50221.78       17.075501      1.9253398e-05  4.7475         7.7013591e-06
   1900000   246.26469     -44217.324     -50230.077      112.00607     -0.010743018    4.75          -0.0042972071 
Loop time of 490.91 on 56 procs for 100000 steps with 12288 atoms

Performance: 17.600 ns/day, 1.364 hours/ns, 203.703 timesteps/s, 2.503 Matom-step/s
99.8% CPU use with 56 MPI tasks x no OpenMP threads

MPI task timing breakdown:
Section |  min time  |  avg time  |  max time  |%varavg| %total
---------------------------------------------------------------
Pair    | 187.05     | 196.21     | 206.28     |  26.8 | 39.97
Bond    | 0.017162   | 0.025511   | 0.043869   |   2.6 |  0.01
Kspace  | 150.77     | 158.67     | 170.17     |  32.7 | 32.32
Neigh   | 22.077     | 22.091     | 22.101     |   0.1 |  4.50
Comm    | 15.869     | 18.17      | 20.421     |  27.1 |  3.70
Output  | 0.22703    | 0.40463    | 0.57462    |  16.2 |  0.08
Modify  | 74.355     | 80.881     | 92.873     |  51.2 | 16.48
Other   |            | 14.46      |            |       |  2.94

Nlocal:        219.429 ave         235 max         202 min
Histogram: 3 4 4 9 5 8 8 6 3 6
Nghost:        6955.32 ave        7019 max        6893 min
Histogram: 1 1 5 12 12 10 8 3 3 1
Neighs:        96054.6 ave      103825 max       88384 min
Histogram: 4 4 4 9 6 8 10 4 2 5

Total # of neighbors = 5379056
Ave neighs/atom = 437.7487
Ave special neighs/atom = 2
Neighbor list builds = 1896
Dangerous builds = 0
kspace_style pppm/tip4p 1.0e-5
next nloop
jump SELF loop_start
run 100000 # 100ps
PPPM initialization ...
  extracting TIP4P info from pair style
  using 12-bit tables for long-range coulomb
  G vector (1/distance) = 0.3306794
  grid = 50 64 50
  stencil order = 5
  estimated absolute RMS force accuracy = 0.0030797115
  estimated relative force accuracy = 9.2744596e-06
  using double precision KISS FFT
  3d grid and FFT values/proc = 13600 3200
Generated 0 of 1 mixed pair_coeff terms from geometric mixing rule
Per MPI rank memory allocation (min/avg/max) = 11.08 | 11.2 | 11.31 Mbytes
   Step          Temp          TotEng         PotEng          Pxy           v_sxy         v_strain     v_viscosity  
   1900000   246.26456     -44217.338     -50230.087      116.82355     -0.011236275    4.75          -0.0044945099 
   1901000   245.4722      -44247.61      -50241.014     -216.70038      0.022596256    4.7525         0.0090385025 
   1902000   246.04701     -44274.02      -50281.459      192.92749     -0.015139537    4.755         -0.0060558149 
   1903000   242.72164     -44440.605     -50366.852      6.6720245     -0.00066431114  4.7575        -0.00026572446
   1904000   247.14796     -44126.581     -50160.9        246.1816      -0.02494071     4.76          -0.0099762841 
   1905000   248.77153     -44245.658     -50319.618     -271.84493      0.026959936    4.7625         0.010783974  
   1906000   242.72855     -44328.69      -50255.105     -283.75535      0.028413684    4.765          0.011365474  
   1907000   247.63195     -44193.946     -50240.082     -10.110546      0.00027477174  4.7675         0.0001099087 
   1908000   243.00196     -44440.578     -50373.669     -8.9096619      0.00040315704  4.77           0.00016126282
   1909000   244.49248     -44362.72      -50332.203     -130.57263      0.01542072     4.7725         0.0061682881 
   1910000   248.94375     -44328.094     -50406.258      162.9032      -0.018466824    4.775         -0.0073867297 
   1911000   245.81564     -44346.186     -50347.975     -205.89179      0.022062843    4.7775         0.0088251372 
   1912000   248.30075     -44295.994     -50358.459     -101.87254      0.012601028    4.78           0.0050404111 
   1913000   249.30572     -44248.614     -50335.617     -156.88902      0.018595159    4.7825         0.0074380634 
   1914000   244.96685     -44468.377     -50449.442     -88.854448      0.0048727822   4.785          0.0019491129 
   1915000   246.32135     -44326.013     -50340.149     -53.577347      0.0059276199   4.7875         0.002371048  
   1916000   246.21727     -44367.378     -50378.973     -345.54477      0.035185101    4.79           0.01407404   
   1917000   245.09195     -44392.237     -50376.357     -204.06514      0.023159549    4.7925         0.0092638194 
   1918000   245.3632      -44398.819     -50389.562     -123.55474      0.012822982    4.795          0.0051291928 
   1919000   246.70669     -44283.994     -50307.539     -178.93941      0.019326384    4.7975         0.0077305535 
   1920000   248.39471     -44272.251     -50337.01      -107.32181      0.011373876    4.8            0.0045495504 
   1921000   245.98159     -44329.682     -50335.523     -84.607353      0.0074569479   4.8025         0.0029827791 
   1922000   247.00947     -44265.514     -50296.452     -50.510451      0.0064349366   4.805          0.0025739747 
   1923000   245.86114     -44314.404     -50317.304     -353.78638      0.033283169    4.8075         0.013313268  
   1924000   240.89442     -44294.747     -50176.381      41.404375     -0.00065192014  4.81          -0.00026076806
   1925000   245.03645     -44129.431     -50112.195     -229.32196      0.021093948    4.8125         0.0084375791 
   1926000   248.17512     -44258.043     -50317.441      146.68628     -0.015899616    4.815         -0.0063598464 
   1927000   246.96132     -44243.726     -50273.488      86.188928     -0.0088298882   4.8175        -0.0035319553 
   1928000   243.64467     -44338.993     -50287.776     -340.03686      0.036266431    4.82           0.014506573  
   1929000   248.27483     -44072.668     -50134.501     -151.17393      0.015153927    4.8225         0.0060615709 
   1930000   244.54071     -44176.76      -50147.42       293.98415     -0.033011197    4.825         -0.013204479  
   1931000   248.25512     -44173.22      -50234.571      77.632271     -0.0094082853   4.8275        -0.0037633141 
   1932000   246.90164     -44171.142     -50199.446     -157.48401      0.019349571    4.83           0.0077398284 
   1933000   246.45554     -44174.711     -50192.124      75.059691     -0.0075944312   4.8325        -0.0030377725 
   1934000   242.71291     -44386.408     -50312.441     -380.30473      0.037503668    4.835          0.015001467  
   1935000   250.55785     -44118.534     -50236.108     -263.55209      0.026606226    4.8375         0.01064249   
   1936000   244.70299     -44294.335     -50268.958      58.18948      -0.005177887    4.84          -0.0020711548 
   1937000   248.22817     -44213.893     -50274.586     -230.20474      0.020075439    4.8425         0.0080301758 
   1938000   245.41607     -44206.955     -50198.988     -310.49283      0.029143264    4.845          0.011657305  
   1939000   248.40942     -44201.19      -50266.308     -182.18005      0.018878877    4.8475         0.0075515509 
   1940000   244.82671     -44270.368     -50248.012     -44.085711      0.0025849542   4.85           0.0010339817 
   1941000   243.61641     -44269.55      -50217.643      9.1001447     -0.00060574391  4.8525        -0.00024229756
   1942000   248.08562     -44133.3       -50190.513     -155.59902      0.011488926    4.855          0.0045955704 
   1943000   247.91195     -44195.103     -50248.075     -264.43719      0.026022255    4.8575         0.010408902  
   1944000   246.16694     -44216.567     -50226.934     -472.68107      0.048776455    4.86           0.019510582  
   1945000   244.54905     -44177.263     -50148.127     -437.05357      0.040971086    4.8625         0.016388434  
   1946000   240.65192     -44391.34      -50267.053      25.720342     -0.0033762156   4.865         -0.0013504862 
   1947000   242.98483     -44241.19      -50173.863     -636.6628       0.061347434    4.8675         0.024538974  
   1948000   241.32781     -44374.148     -50266.364     -174.46172      0.017076408    4.87           0.006830563  
   1949000   247.65116     -44276.43      -50323.035     -133.7013       0.011775568    4.8725         0.0047102272 
   1950000   242.46193     -44310.103     -50230.009      45.960386     -0.0038454551   4.875         -0.001538182  
   1951000   245.82961     -44259.318     -50261.448      84.238552     -0.006967119    4.8775        -0.0027868476 
   1952000   246.36156     -44171.319     -50186.438     -248.88038      0.022068251    4.88           0.0088273004 
   1953000   244.56969     -44331.727     -50303.096     -86.402068      0.0067912574   4.8825         0.002716503  
   1954000   246.68841     -44114.991     -50138.09       58.248802     -0.0087651608   4.885         -0.0035060643 
   1955000   247.45999     -44286.33      -50328.267     -61.914916      0.0047110596   4.8875         0.0018844238 
   1956000   241.68119     -44288.995     -50189.838     -104.81443      0.0092642009   4.89           0.0037056803 
   1957000   247.32929     -44278.044     -50316.79      -117.87082      0.0082903592   4.8925         0.0033161437 
   1958000   248.31509     -44157.298     -50220.114     -54.89314       0.0025394499   4.895          0.00101578   
   1959000   246.24952     -44276.163     -50288.546     -107.31753      0.0058508024   4.8975         0.002340321  
   1960000   246.363       -44356.174     -50371.328     -96.976745      0.0087545177   4.9            0.0035018071 
   1961000   245.40574     -44143.528     -50135.309     -294.78225      0.030094339    4.9025         0.012037736  
   1962000   246.62688     -44326.086     -50347.682     -449.94288      0.043974656    4.905          0.017589862  
   1963000   243.44284     -44378.066     -50321.921     -318.94329      0.031471736    4.9075         0.012588694  
   1964000   247.17499     -44287.753     -50322.732     -132.78369      0.010639572    4.91           0.0042558289 
   1965000   245.85922     -44191.2       -50194.053     -562.14561      0.053337057    4.9125         0.021334823  
   1966000   244.20495     -44418.236     -50380.698     -130.63049      0.01134674     4.915          0.0045386962 
   1967000   248.51926     -44189.722     -50257.522     -208.79201      0.021759342    4.9175         0.0087037367 
   1968000   248.79542     -44063.165     -50137.708     -273.13209      0.025674951    4.92           0.01026998   
   1969000   244.32321     -44317.098     -50282.449     -140.2347       0.016321294    4.9225         0.0065285176 
   1970000   245.05495     -44309.498     -50292.714      94.021258     -0.0078684542   4.925         -0.0031473817 
   1971000   246.97459     -44347.238     -50377.324      83.509102     -0.0099275228   4.9275        -0.0039710091 
   1972000   245.0805      -44317.208     -50301.049      116.68528     -0.013754685    4.93          -0.005501874  
   1973000   245.05099     -44325.287     -50308.407     -140.14222      0.015413356    4.9325         0.0061653422 
   1974000   245.99354     -44348.349     -50354.482      0.89512004     0.0011961231   4.935          0.00047844926
   1975000   244.50787     -44395.659     -50365.518      200.06672     -0.021164681    4.9375        -0.0084658725 
   1976000   244.20387     -44372.28      -50334.716     -139.48352      0.0077524497   4.94           0.0031009799 
   1977000   246.06138     -44207.381     -50215.17      -521.43488      0.049096803    4.9425         0.019638721  
   1978000   245.72091     -44254.134     -50253.611     -7.9262756     -0.00060133724  4.945         -0.00024053489
   1979000   244.53899     -44198.517     -50169.136     -257.92696      0.025212095    4.9475         0.010084838  
   1980000   247.32955     -44246.573     -50285.325      249.60552     -0.026393629    4.95          -0.010557452  
   1981000   251.2501      -44140.075     -50274.551     -73.494992      0.010576677    4.9525         0.004230671  
   1982000   240.96924     -44319.465     -50202.925     -37.766469      0.0046293634   4.955          0.0018517454 
   1983000   250.05054     -44167.806     -50272.994      159.90887     -0.014214933    4.9575        -0.0056859732 
   1984000   247.30389     -44417.704     -50455.83      -103.86993      0.013982544    4.96           0.0055930175 
   1985000   243.77778     -44353.587     -50305.62      -139.13204      0.0089571302   4.9625         0.0035828521 
   1986000   242.76366     -44321.47      -50248.743     -126.71349      0.012019427    4.965          0.0048077707 
   1987000   240.64026     -44342.735     -50218.163     -244.67022      0.025568436    4.9675         0.010227374  
   1988000   246.75297     -44125.277     -50149.952     -245.22604      0.022607104    4.97           0.0090428418 
   1989000   247.66319     -44059.833     -50106.732     -324.50666      0.034005724    4.9725         0.01360229   
   1990000   246.26414     -44144.794     -50157.534     -59.401923      0.0082278646   4.975          0.0032911458 
   1991000   245.05162     -44216.009     -50199.144     -121.95647      0.011398036    4.9775         0.0045592145 
   1992000   246.56001     -44275.096     -50295.059     -21.960057      0.0026561275   4.98           0.001062451  
   1993000   249.75172     -44044.106     -50141.997     -97.67079       0.010061683    4.9825         0.0040246731 
   1994000   246.4758      -44150.124     -50168.031     -229.18082      0.024580646    4.985          0.0098322586 
   1995000   245.82043     -44077.277     -50079.183      58.415736     -0.0067342765   4.9875        -0.0026937106 
   1996000   245.88878     -44145.263     -50148.838     -405.83771      0.04086478     4.99           0.016345912  
   1997000   244.651       -44179.98      -50153.334     -128.33557      0.012383051    4.9925         0.0049532203 
   1998000   247.61848     -44198.552     -50244.359     -185.04955      0.020955276    4.995          0.0083821102 
   1999000   248.45741     -44181.016     -50247.306     -44.255816      0.0059057521   4.9975         0.0023623009 
   2000000   245.47632     -44283.577     -50277.082     -226.14218      0.020473223    5              0.0081892893 
Loop time of 451.729 on 56 procs for 100000 steps with 12288 atoms

Performance: 19.126 ns/day, 1.255 hours/ns, 221.371 timesteps/s, 2.720 Matom-step/s
99.8% CPU use with 56 MPI tasks x no OpenMP threads

MPI task timing breakdown:
Section |  min time  |  avg time  |  max time  |%varavg| %total
---------------------------------------------------------------
Pair    | 184.84     | 195.2      | 200.89     |  24.6 | 43.21
Bond    | 0.016128   | 0.023455   | 0.040728   |   2.4 |  0.01
Kspace  | 133.01     | 138.44     | 147.21     |  28.8 | 30.65
Neigh   | 22.307     | 22.323     | 22.334     |   0.1 |  4.94
Comm    | 15.531     | 16.26      | 17.825     |  14.1 |  3.60
Output  | 0.22785    | 0.40628    | 0.57715    |  16.3 |  0.09
Modify  | 66.456     | 69.987     | 76.969     |  31.1 | 15.49
Other   |            | 9.09       |            |       |  2.01

Nlocal:        219.429 ave         238 max         202 min
Histogram: 2 2 5 15 5 10 8 4 4 1
Nghost:        6836.77 ave        6911 max        6795 min
Histogram: 6 7 9 14 5 7 6 1 0 1
Neighs:        96074.9 ave      105135 max       87929 min
Histogram: 2 3 7 9 11 9 6 5 2 2

Total # of neighbors = 5380193
Ave neighs/atom = 437.84123
Ave special neighs/atom = 2
Neighbor list builds = 1886
Dangerous builds = 0
kspace_style pppm/tip4p 1.0e-5
next nloop
jump SELF loop_start
# run ${Ttotal}
# variable nloop loop ${nloops}
# label loop_start
# run ${stepsPerReset}
# kspace_style pppm/tip4p 1.0e-5
# next nloop
# jump SELF loop_start
Total wall time: 2:32:28
