H2O

768 atoms
2 atom types

0.0 19.49 xlo xhi
0.0 19.49 ylo yhi
0.0 19.49 zlo zhi

Atoms

 1  1   -8.784800000000001    5.820000000000000   -7.121199999999999
 2  2   -8.605100000000000    5.935899999999999   -6.178600000000000
 3  2   -8.007199999999999    6.182500000000000   -7.550600000000000
 4  1    9.159800000000001   -2.792400000000000   -7.289200000000000
 5  2    8.769200000000000   -2.032800000000000   -6.925700000000000
 6  2    8.523700000000000   -3.370300000000000   -7.709900000000000
 7  1    0.231830000000000   -8.330500000000001   -7.727200000000000
 8  2    1.128400000000000   -8.402200000000001   -7.355599999999999
 9  2   -0.475210000000000   -8.583100000000000   -6.992799999999999
10  1   -0.340450000000000   -5.249700000000000    0.401340000000000
11  2   -0.065741000000000   -5.530899999999999   -0.489790000000000
12  2    0.443770000000000   -4.709200000000000    0.634690000000000
13  1   -2.919500000000000    2.561500000000000   -2.622000000000000
14  2   -3.459900000000000    2.058900000000000   -3.258599999999999
15  2   -3.371400000000000    2.656200000000000   -1.740200000000000
16  1   -3.070100000000000    8.431100000000001   -6.118200000000000
17  2   -2.494300000000000    9.172300000000000   -5.844300000000000
18  2   -3.145300000000000    7.742400000000000   -5.383100000000000
19  1   -3.996300000000000    6.301300000000000   -0.479190000000000
20  2   -4.930600000000000    6.372900000000000   -0.788230000000000
21  2   -3.944500000000000    5.302200000000000   -0.400880000000000
22  1   -5.502199999999999    7.288100000000000    7.205100000000000
23  2   -5.229100000000000    6.407600000000000    6.985299999999999
24  2   -4.994800000000000    7.938899999999999    6.604600000000000
25  1    1.042100000000000   -5.163200000000000   -5.045300000000000
26  2    1.129900000000000   -4.251100000000000   -4.951400000000000
27  2    0.257380000000000   -5.292200000000000   -5.613400000000000
28  1    4.425900000000000    0.769790000000000   -6.031700000000000
29  2    4.571900000000000    1.190500000000000   -6.865799999999999
30  2    4.916800000000000    1.272300000000000   -5.363700000000000
31  1   -8.756500000000001   -6.350000000000000    2.059400000000000
32  2   -9.220100000000000   -5.930400000000000    2.815300000000000
33  2   -9.158300000000001   -7.180600000000000    1.856800000000000
34  1    0.876050000000000    2.388700000000000   -0.622290000000000
35  2    1.033300000000000    1.800600000000000   -1.441100000000000
36  2    0.302440000000000    1.942600000000000    0.001041000000000
37  1    8.481199999999999    2.407500000000000    1.305900000000000
38  2    7.639700000000000    2.732200000000000    1.016100000000000
39  2    9.142300000000001    2.514300000000000    0.609140000000000
40  1    2.577300000000000   -6.454599999999999    0.743520000000000
41  2    1.857900000000000   -6.019100000000000    1.276600000000000
42  2    2.107300000000000   -7.240700000000000    0.367920000000000
43  1    9.684200000000001    8.775499999999999    0.203090000000000
44  2    9.475300000000001    7.851300000000000    0.078456000000000
45  2   -9.726300000000000    9.115399999999999   -0.695420000000000
46  1   -4.336400000000000    1.334000000000000   -4.585400000000000
47  2   -3.624100000000000    0.983980000000000   -5.077700000000000
48  2   -4.864300000000000    0.506170000000000   -4.493600000000000
49  1    3.737600000000000    7.942500000000000   -1.730600000000000
50  2    3.963200000000000    7.302100000000000   -2.390200000000000
51  2    2.813400000000000    7.729800000000000   -1.710600000000000
52  1   -3.842600000000000    2.049800000000000    5.816200000000000
53  2   -2.982600000000000    1.911600000000000    5.385000000000000
54  2   -4.351100000000000    1.231500000000000    5.794300000000000
55  1    7.295300000000000   -5.101100000000000   -7.715900000000000
56  2    7.493100000000000   -5.848000000000000   -7.133400000000000
57  2    6.623400000000000   -4.542300000000000   -7.231500000000000
58  1    9.481700000000000    2.432900000000000   -3.391600000000000
59  2    8.993499999999999    1.671300000000000   -3.228700000000000
60  2   -9.145300000000001    2.118900000000000   -3.718900000000000
61  1    2.983900000000000   -7.312400000000000   -5.084600000000000
62  2    3.540200000000000   -6.975500000000000   -5.846800000000000
63  2    2.165100000000000   -6.796900000000000   -5.223100000000000
64  1    6.254799999999999   -6.329400000000000    9.459300000000001
65  2    6.438600000000000   -6.583600000000000    8.497299999999999
66  2    6.947100000000000   -5.732700000000000    9.730700000000001
67  1    8.329200000000000    1.887200000000000   -7.357200000000000
68  2    7.991500000000000    1.278000000000000   -6.661200000000000
69  2    7.566700000000000    2.389100000000000   -7.663900000000000
70  1   -3.222300000000000   -9.122700000000000   -3.073400000000000
71  2   -2.852400000000000    9.615500000000001   -2.567600000000000
72  2   -2.908300000000000   -8.327100000000000   -2.592800000000000
73  1    6.464600000000000   -4.321400000000000    0.867270000000000
74  2    5.755100000000000   -3.959600000000000    0.234780000000000
75  2    7.197200000000000   -3.804400000000000    0.689000000000000
76  1   -8.376400000000000   -0.929140000000000   -4.964200000000000
77  2   -8.381000000000000   -0.401280000000000   -5.848000000000000
78  2   -9.095100000000000   -1.559000000000000   -5.061699999999999
79  1    5.788800000000000   -9.667999999999999    4.027400000000000
80  2    5.988800000000000    9.461100000000000    4.942300000000000
81  2    6.251400000000000   -8.857500000000000    4.041700000000000
82  1   -6.547800000000000    2.597300000000000    2.603500000000000
83  2   -5.920399999999999    3.342300000000000    2.750700000000000
84  2   -6.096500000000000    1.806000000000000    2.353000000000000
85  1   -2.165200000000000    8.012300000000000   -1.888200000000000
86  2   -1.461700000000000    8.361100000000000   -1.351400000000000
87  2   -2.640400000000000    7.319400000000000   -1.443000000000000
88  1   -4.063900000000000   -5.727300000000000    6.166900000000000
89  2   -3.866900000000000   -6.320200000000000    6.934500000000000
90  2   -4.947600000000000   -5.977899999999999    5.880600000000000
91  1   -3.864300000000000    6.442400000000000   -4.133400000000000
92  2   -3.149100000000000    6.158000000000000   -3.519300000000000
93  2   -3.964500000000000    5.711200000000000   -4.771800000000000
94  1    3.242000000000000    4.341300000000000   -0.454410000000000
95  2    2.735800000000000    3.571400000000000   -0.250700000000000
96  2    3.088299999999999    5.020800000000000    0.211330000000000
97  1    4.522100000000000   -6.673199999999999   -2.821200000000000
98  2    3.986699999999999   -6.994400000000000   -3.596099999999999
99  2    5.387999999999999   -6.311099999999999   -3.213100000000000
100  1   -6.418899999999999    2.666800000000000   -2.029700000000000
101  2   -6.837299999999999    3.111300000000000   -2.756700000000000
102  2   -7.041500000000000    2.668699999999999   -1.264500000000000
103  1   -0.000286000000000    5.282700000000000   -0.423480000000000
104  2    0.430720000000000    5.576200000000000   -1.287100000000000
105  2    0.214210000000000    4.330100000000000   -0.356480000000000
106  1   -5.110599999999999   -3.491400000000000   -5.854500000000000
107  2   -5.982400000000000   -3.851400000000000   -6.029200000000000
108  2   -5.287600000000000   -2.604100000000000   -5.564500000000000
109  1    0.662750000000000   -7.674599999999999    4.775400000000000
110  2    1.538500000000000   -8.096399999999999    4.857900000000000
111  2    0.038702000000000   -8.420800000000000    4.957500000000000
112  1   -1.151000000000000    9.724200000000000    5.363000000000000
113  2   -0.585260000000000    8.956799999999999    5.524800000000000
114  2   -2.067000000000000    9.569699999999999    5.747600000000000
115  1   -8.549200000000001   -2.804100000000000    5.416699999999999
116  2   -8.029800000000000   -3.463600000000000    5.837100000000000
117  2   -8.874800000000000   -2.057600000000000    5.962300000000000
118  1    4.998099999999999   -4.268800000000000   -6.157600000000000
119  2    4.631300000000000   -4.270500000000000   -5.279500000000000
120  2    4.447100000000000   -4.841800000000000   -6.692200000000000
121  1   -8.618700000000000    7.087300000000000    3.328700000000000
122  2   -8.324999999999999    6.579900000000000    4.127100000000000
123  2   -9.590199999999999    6.960100000000000    3.193100000000000
124  1   -9.400200000000000    7.480000000000000   -9.557399999999999
125  2    9.716799999999999    8.227300000000000   -9.060700000000001
126  2   -8.428699999999999    7.388400000000000   -9.381800000000000
127  1   -9.065799999999999   -2.884900000000000    9.584500000000000
128  2   -9.217200000000000   -2.689700000000000   -8.904299999999999
129  2   -8.120799999999999   -2.787400000000000    9.560600000000001
130  1    8.369000000000000   -4.488900000000000    8.400200000000000
131  2    8.899300000000000   -3.706800000000000    8.628000000000000
132  2    8.284200000000000   -4.411200000000000    7.439600000000000
133  1    1.189000000000000   -2.351000000000000   -4.626800000000000
134  2    1.299100000000000   -1.732300000000000   -5.349400000000000
135  2    0.202140000000000   -2.414300000000000   -4.556600000000000
136  1    3.408600000000000   -8.453099999999999    3.122100000000000
137  2    4.207600000000000   -8.746100000000000    3.611900000000000
138  2    3.348700000000000   -7.521400000000000    2.865500000000000
139  1    9.188000000000001   -8.601300000000000    1.773200000000000
140  2    8.333900000000000   -8.307600000000001    2.008800000000000
141  2    8.964800000000000   -9.311000000000000    1.164600000000000
142  1   -2.957600000000000   -3.115300000000000   -7.421200000000000
143  2   -2.254600000000000   -3.751500000000000   -7.168000000000000
144  2   -3.776600000000000   -3.449900000000000   -6.954100000000000
145  1    4.316300000000000    7.197500000000000   -7.818400000000000
146  2    3.875400000000000    8.006399999999999   -7.625899999999999
147  2    4.945800000000000    7.481600000000000   -8.520700000000000
148  1   -5.165500000000000   -3.057200000000000    7.744300000000000
149  2   -5.596500000000000   -3.673800000000000    7.103900000000000
150  2   -4.380100000000000   -3.432799999999999    8.195200000000000
151  1    9.156200000000000    5.842999999999999   -0.226870000000000
152  2    8.371200000000000    5.260599999999999   -0.229350000000000
153  2   -9.635500000000000    5.515500000000000    0.407360000000000
154  1   -8.160299999999999   -0.481520000000000   -7.639899999999999
155  2   -7.383499999999999   -0.953960000000000   -7.914900000000000
156  2   -8.634100000000000   -0.330160000000000   -8.452500000000001
157  1    9.506500000000001   -8.853300000000001    5.961900000000000
158  2   -9.710200000000000   -9.107200000000001    5.063800000000000
159  2    9.513999999999999   -9.660800000000000    6.468999999999999
160  1   -2.925200000000000    5.024300000000000   -8.250600000000000
161  2   -3.196700000000000    5.956599999999999   -8.104900000000001
162  2   -2.037100000000000    5.067599999999999   -8.692100000000000
163  1    8.308100000000000    6.030900000000000    3.203500000000000
164  2    7.415800000000000    6.288000000000000    3.043600000000000
165  2    8.214200000000000    5.102400000000000    3.430600000000000
166  1   -2.155700000000000   -6.142800000000000    3.602900000000000
167  2   -2.764200000000000   -5.909000000000000    4.382800000000000
168  2   -2.536900000000000   -6.913600000000000    3.178900000000000
169  1   -1.815600000000000   -2.259900000000000   -4.313700000000000
170  2   -2.166200000000000   -1.881200000000000   -3.509400000000000
171  2   -1.853000000000000   -1.474200000000000   -4.909200000000000
172  1    3.889100000000000   -5.416699999999999    3.744400000000000
173  2    4.638500000000000   -4.881400000000000    3.499300000000000
174  2    3.161200000000000   -5.162300000000000    3.210500000000000
175  1   -2.529100000000000   -6.686000000000000   -2.232400000000000
176  2   -2.642100000000000   -6.724399999999999   -1.235600000000000
177  2   -3.042100000000000   -5.981500000000000   -2.607400000000000
178  1    0.014870000000000   -6.354499999999999   -2.302900000000000
179  2    0.171870000000000   -5.663200000000000   -2.969000000000000
180  2   -0.962210000000000   -6.435600000000000   -2.287800000000000
181  1   -0.899510000000000    5.093400000000000   -5.844200000000000
182  2   -1.747500000000000    5.496500000000000   -6.143300000000000
183  2   -1.000700000000000    4.989300000000000   -4.874100000000000
184  1   -0.648230000000000   -1.528100000000000    6.713800000000000
185  2   -1.153200000000000   -0.830820000000000    7.176999999999999
186  2   -1.319400000000000   -2.205800000000000    6.503699999999999
187  1    8.666399999999999   -0.020103000000000    2.372400000000000
188  2    8.168300000000000    0.691120000000000    2.105400000000000
189  2    8.489699999999999   -0.191650000000000    3.344400000000000
190  1   -4.995500000000000    4.575700000000000    5.987000000000000
191  2   -5.694599999999999    4.276200000000000    6.546599999999999
192  2   -4.489400000000000    3.726100000000000    5.805600000000000
193  1    1.120700000000000   -8.687500000000000   -3.176300000000000
194  2    0.829290000000000   -7.748200000000000   -2.991100000000000
195  2    1.945700000000000   -8.542299999999999   -3.754500000000000
196  1   -4.212500000000000    3.350699999999999   -0.354470000000000
197  2   -5.015500000000000    3.011900000000000   -0.748520000000000
198  2   -3.986600000000000    2.739400000000000    0.401120000000000
199  1   -2.271200000000000    8.815500000000000    2.626100000000000
200  2   -1.528200000000000    8.628299999999999    2.022800000000000
201  2   -1.907500000000000    9.169900000000000    3.427700000000000
202  1    7.094800000000000    8.367400000000000   -1.916600000000000
203  2    6.285300000000000    8.888000000000000   -2.146600000000000
204  2    7.010900000000000    8.005800000000001   -1.004000000000000
205  1    6.055599999999999   -2.872500000000000    5.749799999999999
206  2    6.547000000000000   -2.052200000000000    5.679299999999999
207  2    6.391500000000000   -3.499000000000000    5.142000000000000
208  1   -1.296200000000000   -1.462000000000000   -8.780300000000000
209  2   -1.820300000000000   -2.099900000000000   -8.298999999999999
210  2   -1.497100000000000   -0.645490000000000   -8.346399999999999
211  1    9.700200000000001   -3.053600000000000   -4.053700000000000
212  2   -9.583600000000001   -2.697200000000000   -3.191900000000000
213  2    8.716100000000001   -3.076800000000000   -4.104400000000000
214  1    5.747900000000000    1.639600000000000    4.291500000000000
215  2    6.270500000000000    1.671400000000000    5.088300000000000
216  2    5.621900000000000    2.571500000000000    3.990200000000000
217  1   -6.433800000000000   -8.496700000000001    0.568650000000000
218  2   -6.665200000000000   -9.368800000000000    0.901230000000000
219  2   -7.244300000000000   -8.012200000000000    0.365390000000000
220  1    1.389400000000000    4.136100000000000   -4.185100000000000
221  2    1.095300000000000    4.367200000000000   -5.097399999999999
222  2    2.281000000000000    3.812399999999999   -4.284600000000000
223  1    5.482100000000000   -1.566200000000000   -7.053400000000000
224  2    5.039200000000000   -0.753360000000000   -6.752199999999999
225  2    4.961199999999999   -2.375700000000000   -6.811700000000000
226  1    4.258100000000000   -3.282500000000000   -3.513700000000000
227  2    4.333500000000000   -2.305700000000000   -3.442100000000000
228  2    3.335500000000000   -3.392600000000000   -3.736900000000000
229  1   -1.930400000000000    5.748800000000000    1.660500000000000
230  2   -1.371600000000000    5.503200000000000    0.919240000000000
231  2   -2.640299999999999    6.285600000000000    1.361300000000000
232  1   -6.102700000000000    7.821900000000000   -3.844200000000000
233  2   -6.021900000000000    8.680600000000000   -3.369200000000000
234  2   -5.189699999999999    7.485800000000000   -3.915500000000000
235  1    4.504400000000000    1.850100000000000   -8.830000000000000
236  2    4.060900000000000    2.536100000000000   -9.385100000000000
237  2    4.544500000000000    1.069600000000000   -9.334899999999999
238  1   -3.834099999999999   -7.997500000000000    2.216900000000000
239  2   -4.569300000000000   -8.140599999999999    1.620900000000000
240  2   -3.411600000000000   -8.893900000000000    2.218800000000000
241  1   -8.579300000000000   -9.525000000000000    3.740700000000000
242  2   -9.111499999999999   -9.406400000000000    2.947500000000000
243  2   -8.542600000000000    8.988799999999999    3.893900000000000
244  1   -4.333700000000000    9.134800000000000    9.214399999999999
245  2   -4.884799999999999    8.503700000000000    8.691100000000000
246  2   -3.543099999999999    9.141700000000000    8.665600000000000
247  1   -2.100500000000000   -8.319599999999999   -5.712600000000000
248  2   -2.981199999999999   -8.066500000000000   -5.957900000000000
249  2   -2.128300000000000   -8.367500000000000   -4.759800000000000
250  1    0.530050000000000   -5.759600000000000   -8.885199999999999
251  2    0.094220000000000   -5.744000000000000    9.725899999999999
252  2    0.406420000000000   -6.650900000000000   -8.551100000000000
253  1    3.136400000000000   -5.684800000000000    9.683100000000000
254  2    3.538500000000000   -4.999800000000000    9.095900000000000
255  2    2.159000000000000   -5.469500000000000    9.720300000000000
256  1    9.095900000000000    5.354800000000000    8.423800000000000
257  2    9.542700000000000    4.519500000000000    8.635999999999999
258  2    9.275200000000000    5.939000000000000    9.161700000000000
259  1   -1.113900000000000   -5.114400000000000   -7.018900000000000
260  2   -1.820100000000000   -5.753800000000000   -7.186800000000000
261  2   -0.424140000000000   -5.250900000000000   -7.684600000000000
262  1    4.391900000000000    5.982100000000000   -5.120600000000000
263  2    4.140800000000000    6.699500000000000   -5.738000000000000
264  2    5.170000000000000    6.434800000000000   -4.782400000000000
265  1   -0.321030000000000    8.352900000000000   -3.941800000000000
266  2   -1.141400000000000    8.216200000000001   -3.406500000000000
267  2    0.087747000000000    9.195300000000000   -3.743600000000000
268  1   -1.575600000000000    8.252100000000000    8.488500000000000
269  2   -1.710900000000000    8.097600000000000    9.481000000000000
270  2   -1.912300000000000    7.473900000000000    8.033200000000001
271  1   -6.091699999999999   -2.245600000000000   -8.937400000000000
272  2   -5.931900000000000   -3.051400000000000   -8.354400000000000
273  2   -5.923800000000000   -2.498300000000000    9.656900000000000
274  1   -8.238300000000001    6.222600000000000    5.970899999999999
275  2   -8.887800000000000    6.982300000000000    6.035900000000000
276  2   -7.574900000000000    6.531899999999999    6.541300000000000
277  1    8.541700000000001   -8.763199999999999    8.858400000000000
278  2    7.931399999999999   -8.083600000000001    9.141900000000000
279  2    8.222500000000000   -9.004799999999999    8.003200000000000
280  1    2.646500000000000   -9.625100000000000   -7.480200000000000
281  2    3.363000000000000   -9.356600000000000   -6.884200000000000
282  2    2.118800000000000    9.258500000000000   -6.884700000000000
283  1   -6.979799999999999   -4.976999999999999    5.941600000000000
284  2   -7.114399999999999   -5.630800000000000    6.601100000000000
285  2   -6.744899999999999   -5.338299999999999    5.044300000000000
286  1   -5.180500000000000    7.291299999999999    2.699400000000000
287  2   -5.640400000000000    7.352600000000000    1.886600000000000
288  2   -4.230200000000000    7.574100000000000    2.559800000000000
289  1    2.415500000000000   -5.736999999999999    5.981500000000000
290  2    1.597500000000000   -6.002700000000000    5.523599999999999
291  2    3.084800000000000   -5.647800000000000    5.288700000000000
292  1    6.813200000000000   -4.291400000000000    3.664200000000000
293  2    6.568900000000000   -4.170600000000000    2.710900000000000
294  2    7.707900000000000   -4.079500000000000    3.797600000000000
295  1    2.198100000000000   -2.803400000000000    6.109800000000000
296  2    2.239500000000000   -3.747900000000000    6.127100000000000
297  2    2.166000000000000   -2.519499999999999    7.014899999999999
298  1   -2.632000000000000   -3.127500000000000    5.480499999999999
299  2   -3.263900000000000   -3.835700000000000    5.629899999999999
300  2   -2.580299999999999   -2.964400000000000    4.532400000000000
301  1    9.135400000000001    8.810800000000000   -5.494899999999999
302  2    8.291700000000001    9.025399999999999   -5.093500000000000
303  2    9.611300000000000    8.124100000000000   -4.964500000000000
304  1    4.322300000000000    0.662210000000000    2.045800000000000
305  2    4.918199999999999    0.817920000000000    2.821100000000000
306  2    3.439300000000000    0.934600000000000    2.408700000000000
307  1   -7.358200000000000    8.452100000000000   -7.199499999999999
308  2   -6.810000000000000    7.940300000000000   -6.612900000000000
309  2   -8.254700000000000    8.323700000000001   -6.768600000000000
310  1   -4.165500000000000   -2.360700000000000    0.900340000000000
311  2   -4.012700000000000   -3.319100000000000    1.121100000000000
312  2   -3.623400000000000   -1.825000000000000    1.410100000000000
313  1    8.724500000000001    9.243499999999999   -8.014900000000001
314  2    8.957000000000001    8.929900000000000   -7.081000000000000
315  2    8.963500000000000   -9.309799999999999   -8.024800000000001
316  1    4.616400000000000   -2.725900000000000   -0.423620000000000
317  2    4.097000000000000   -2.507300000000000    0.385800000000000
318  2    4.083500000000000   -3.411700000000000   -0.879730000000000
319  1    4.025600000000000    3.989200000000000   -3.284400000000000
320  2    3.593200000000000    4.314000000000000   -2.457300000000000
321  2    4.285000000000000    4.743100000000000   -3.765900000000000
322  1    3.459400000000000   -7.940600000000000    7.612699999999999
323  2    3.499500000000000   -7.346800000000000    8.405600000000000
324  2    2.996600000000000   -7.400600000000000    7.009700000000000
325  1   -0.818900000000000   -0.447670000000000    3.942700000000000
326  2   -0.849470000000000   -0.887650000000000    4.809500000000000
327  2   -1.693400000000000   -0.613270000000000    3.582400000000000
328  1   -6.426500000000000   -8.348300000000000    9.096500000000001
329  2   -5.695200000000000   -8.959199999999999    8.958600000000001
330  2   -6.541700000000000   -8.384600000000001   -9.475800000000000
331  1    7.727600000000000   -0.376540000000000   -5.855700000000000
332  2    6.923600000000000   -0.724840000000000   -6.227600000000000
333  2    7.752300000000000   -0.412780000000000   -4.847400000000000
334  1    2.829100000000000   -4.684400000000000   -1.411100000000000
335  2    3.264900000000000   -5.334500000000000   -2.018100000000000
336  2    2.642700000000000   -5.207900000000000   -0.634930000000000
337  1   -6.961000000000000    2.931700000000000   -4.969600000000000
338  2   -6.448100000000000    2.153800000000000   -4.854700000000000
339  2   -7.472700000000000    2.748500000000000   -5.812100000000000
340  1    6.638900000000000    4.477400000000000   -0.509410000000000
341  2    6.185300000000000    4.747100000000000   -1.324400000000000
342  2    6.193700000000000    3.675600000000000   -0.287900000000000
343  1   -5.745300000000000   -0.848340000000000    3.899600000000000
344  2   -5.756700000000000   -0.931390000000000    4.862700000000000
345  2   -5.997899999999999   -1.730600000000000    3.495900000000000
346  1   -8.617100000000001    6.833900000000000   -4.702800000000000
347  2   -7.733199999999999    7.229500000000000   -4.467100000000000
348  2   -8.933299999999999    6.277800000000000   -3.936200000000000
349  1    1.363900000000000    0.528560000000000   -2.863700000000000
350  2    1.033700000000000    0.832880000000000   -3.664800000000000
351  2    0.947990000000000   -0.279230000000000   -2.588400000000000
352  1    8.809400000000000    3.287900000000000    4.162700000000000
353  2    9.672200000000000    3.441400000000000    4.605600000000000
354  2    9.088300000000000    2.828000000000000    3.421600000000000
355  1   -5.081800000000000    0.529270000000000   -0.779780000000000
356  2   -5.705800000000000   -0.175980000000000   -0.731610000000000
357  2   -5.436100000000000    1.018500000000000   -1.556300000000000
358  1   -9.321700000000000   -6.231500000000000    9.487100000000000
359  2   -9.366199999999999   -6.935300000000000    8.866800000000000
360  2    9.516200000000000   -5.586799999999999    9.180000000000000
361  1   -7.187500000000000    8.347500000000000    1.229000000000000
362  2   -8.019399999999999    8.720200000000000    0.885250000000000
363  2   -7.622000000000000    7.860099999999999    1.938500000000000
364  1   -0.853880000000000    9.375700000000000    0.344880000000000
365  2    0.084558000000000    9.456700000000000    0.625510000000000
366  2   -1.050100000000000   -9.165800000000001    0.326180000000000
367  1   -6.394700000000000   -7.050699999999999   -4.461000000000000
368  2   -6.216900000000000   -7.693200000000000   -3.713000000000000
369  2   -6.721000000000000   -6.198099999999999   -4.117000000000000
370  1   -7.596700000000000   -4.070500000000000   -6.615500000000000
371  2   -7.446600000000000   -4.530800000000000   -7.457800000000000
372  2   -8.105100000000000   -3.271600000000000   -6.811700000000000
373  1    8.147600000000001   -0.807050000000000    5.450200000000000
374  2    7.561499999999999   -0.152930000000000    5.816500000000000
375  2    8.763500000000001   -0.892130000000000    6.185700000000000
376  1    0.931800000000000    7.921500000000000   -6.330300000000000
377  2    0.343130000000000    8.085900000000001   -5.554300000000000
378  2    1.183700000000000    6.987699999999999   -6.281800000000000
379  1    3.865300000000000   -0.326390000000000    5.736199999999999
380  2    4.345700000000000    0.302220000000000    5.161199999999999
381  2    4.262900000000000   -1.171600000000000    5.507500000000000
382  1    1.843700000000000    5.324199999999999   -6.997600000000000
383  2    1.073600000000000    5.271500000000000   -7.621500000000000
384  2    2.550200000000000    5.132699999999999   -7.595700000000000
385  1   -9.050400000000000    4.823300000000000   -2.621200000000000
386  2   -9.478999999999999    5.060200000000000   -1.782700000000000
387  2   -9.488700000000000    4.003600000000000   -2.902500000000000
388  1    4.186400000000000    8.972700000000000    8.325699999999999
389  2    3.792100000000000    8.124300000000000    8.621400000000000
390  2    3.479500000000000    9.609900000000000    8.414600000000000
391  1   -0.689230000000000    1.256900000000000    1.372900000000000
392  2   -0.189590000000000    1.278100000000000    2.207500000000000
393  2   -0.802940000000000    0.264470000000000    1.237700000000000
394  1    7.081600000000000   -3.459300000000000   -4.491800000000000
395  2    6.437500000000000   -3.103800000000000   -3.780400000000000
396  2    6.832200000000000   -3.022000000000000   -5.280800000000000
397  1    3.278900000000000    7.585600000000000    5.869200000000000
398  2    3.412300000000000    8.333800000000000    6.510699999999999
399  2    3.685200000000000    7.876100000000000    5.070800000000000
400  1   -0.344080000000000   -4.890599999999999    5.325500000000000
401  2   -0.932700000000000   -5.684600000000000    5.036800000000000
402  2   -0.868520000000000   -4.055000000000000    5.065200000000000
403  1    8.338200000000001   -0.037011000000000   -3.066100000000000
404  2    9.116400000000001   -0.453210000000000   -2.623900000000000
405  2    7.638700000000000   -0.076024000000000   -2.386100000000000
406  1   -8.768900000000000    2.994000000000000    9.174300000000001
407  2   -9.351400000000000    2.321600000000000    8.783600000000000
408  2   -8.973599999999999    2.913899999999999   -9.394000000000000
409  1   -7.259200000000000    0.466860000000000    8.137200000000000
410  2   -7.925500000000000    1.086400000000000    7.775599999999999
411  2   -6.920000000000000    0.887210000000000    8.939600000000000
412  1    1.693300000000000    1.054600000000000    3.316600000000000
413  2    1.476000000000000    0.654190000000000    4.172900000000000
414  2    1.815900000000000    1.989700000000000    3.359300000000000
415  1    1.298600000000000    0.381680000000000    6.254999999999999
416  2    2.191600000000000    0.185490000000000    6.007800000000000
417  2    0.834480000000000   -0.466570000000000    6.273200000000000
418  1    9.540400000000000   -5.070000000000000    4.135700000000000
419  2    9.072900000000001   -5.529399999999999    4.887900000000000
420  2   -9.474100000000000   -4.294000000000000    4.481000000000000
421  1   -2.778999999999999    6.691000000000000    4.728300000000000
422  2   -2.218600000000000    6.407700000000000    4.003800000000000
423  2   -3.014400000000000    7.552200000000000    4.404800000000000
424  1   -4.005900000000000   -0.213070000000000   -8.415400000000000
425  2   -4.515200000000000   -1.040500000000000   -8.574100000000000
426  2   -4.746500000000000    0.419040000000000   -8.345599999999999
427  1   -9.670100000000000   -7.694900000000000   -7.603300000000000
428  2   -9.736200000000000   -7.129199999999999   -8.398999999999999